# y+ ()      
# Time       	patch        	min          	max          	average      
85           	lowerWall	5.612502e+00	2.046285e+01	1.531137e+01
85           	upperWall	1.304834e+01	1.919460e+01	1.502808e+01
