0.0244 	1.02 	1 	0.00730261
0.0244 	1.04 	1 	0.00800802
0.0244 	1.06 	1 	0.00861224
0.0244 	1.09 	1 	0.00951857
0.0244 	1.11 	1 	0.00980271
0.0244 	1.14 	1 	0.0096812
0.0244 	1.16 	1 	0.00954134
0.0244 	1.19 	1 	0.00925885
0.0244 	1.21 	1 	0.00907052
0.0244 	1.23 	1 	0.00884359
0.0244 	1.26 	1 	0.00829652
0.0244 	1.28 	1 	0.00794814
0.0244 	1.31 	1 	0.00749541
0.0244 	1.33 	1 	0.0071936
0.0244 	1.36 	1 	0.00677223
0.0244 	1.38 	1 	0.00653731
0.0244 	1.41 	1 	0.00620053
0.0244 	1.43 	1 	0.00599403
0.0244 	1.45 	1 	0.00578753
0.0244 	1.48 	1 	0.00548386
0.0244 	1.5 	1 	0.00530501
0.0244 	1.53 	1 	0.00504279
0.0244 	1.55 	1 	0.00488284
0.0244 	1.58 	1 	0.00464293
0.0244 	1.6 	1 	0.00448299
0.0244 	1.63 	1 	0.00426939
0.0244 	1.65 	1 	0.00412828
0.0244 	1.67 	1 	0.00400594
0.0244 	1.7 	1 	0.00382244
0.0244 	1.72 	1 	0.0037001
0.0244 	1.75 	1 	0.00354068
0.0244 	1.77 	1 	0.00343836
0.0244 	1.8 	1 	0.00331601
0.0244 	1.82 	1 	0.003238
0.0244 	1.85 	1 	0.00312099
0.0244 	1.87 	1 	0.00306729
0.0244 	1.89 	1 	0.0030145
0.0244 	1.92 	1 	0.00295841
0.0244 	1.94 	1 	0.00292801
0.0244 	1.97 	1 	0.00288242
0.0244 	1.99 	1 	0.00286834
0.0244 	2.02 	1 	0.00285685
0.0244 	2.04 	1 	0.00286869
0.0244 	2.07 	1 	0.00289469
0.0244 	2.09 	1 	0.00291202
0.0244 	2.12 	1 	0.00296234
0.0244 	2.14 	1 	0.00300472
0.0244 	2.16 	1 	0.00306318
0.0244 	2.19 	1 	0.00317228
0.0244 	2.21 	1 	0.00324501
0.0244 	2.24 	1 	0.00337612
0.0244 	2.26 	1 	0.00347935
0.0244 	2.29 	1 	0.00365439
0.0244 	2.31 	1 	0.0037836
0.0244 	2.34 	1 	0.00397741
0.0244 	2.36 	1 	0.00411967
0.0244 	2.38 	1 	0.00427659
0.0244 	2.41 	1 	0.00453417
0.0244 	2.43 	1 	0.00473332
0.0244 	2.46 	1 	0.00503206
0.0244 	2.48 	1 	0.00524121
0.0244 	2.51 	1 	0.00560811
0.0244 	2.53 	1 	0.00587
0.0244 	2.55 	1 	0.00617634
0.0244 	2.58 	1 	0.00663584
0.0244 	2.6 	1 	0.00694218
0.0244 	2.63 	1 	0.00749352
0.0244 	2.65 	1 	0.00786531
0.0244 	2.68 	1 	0.00853273
0.0244 	2.7 	1 	0.00897769
0.0244 	2.73 	1 	0.00965847
0.0244 	2.75 	1 	0.0101641
0.0244 	2.78 	1 	0.0107889
0.0244 	2.8 	1 	0.0108127
0.0244 	2.82 	1 	0.0108366
0.0244 	2.85 	1 	0.0108724
0.0244 	2.87 	1 	0.0104232
0.0244 	2.9 	1 	0.00973463
0.0244 	2.92 	1 	0.00949842
0.0244 	2.95 	1 	0.00914409
0.0244 	2.96 	1 	0.00902599
1 	0.017 	1 	0.0046026
1 	0.0413 	1 	0.00487756
1 	0.0609 	1 	0.00509934
1 	0.0849 	1 	0.0053709
1 	0.112 	1 	0.00567755
1 	0.134 	1 	0.00598281
1 	0.16 	1 	0.00643974
1 	0.183 	1 	0.00684395
1 	0.207 	1 	0.00726573
1 	0.233 	1 	0.00772265
1 	0.256 	1 	0.00807608
1 	0.281 	1 	0.00830383
1 	0.305 	1 	0.00852247
1 	0.331 	1 	0.00875933
1 	0.355 	1 	0.00897797
1 	0.378 	1 	0.00917348
1 	0.404 	1 	0.00928888
1 	0.429 	1 	0.00939984
1 	0.452 	1 	0.00950192
1 	0.476 	1 	0.00960844
1 	0.502 	1 	0.00972605
1 	0.525 	1 	0.00985365
1 	0.55 	1 	0.00999235
1 	0.575 	1 	0.010131
1 	0.599 	1 	0.0102642
1 	0.623 	1 	0.0103973
1 	0.648 	1 	0.0108022
1 	0.673 	1 	0.0112302
1 	0.697 	1 	0.0116411
1 	0.721 	1 	0.0120519
1 	0.746 	1 	0.0124799
1 	0.77 	1 	0.0133081
1 	0.795 	1 	0.0142576
1 	0.819 	1 	0.0151692
1 	0.844 	1 	0.0161187
1 	0.868 	1 	0.0170303
1 	0.892 	1 	0.0173918
1 	0.917 	1 	0.0175324
1 	0.942 	1 	0.017673
1 	0.966 	1 	0.017808
1 	0.991 	1 	0.0179487
1 	1.01 	1 	0.0175918
1 	1.04 	1 	0.0163693
1 	1.06 	1 	0.0155544
1 	1.09 	1 	0.0143319
1 	1.11 	1 	0.013517
1 	1.14 	1 	0.0124128
1 	1.16 	1 	0.0117554
1 	1.19 	1 	0.0107694
1 	1.21 	1 	0.0101121
1 	1.24 	1 	0.00912613
1 	1.26 	1 	0.00862297
1 	1.28 	1 	0.00827397
1 	1.31 	1 	0.00775048
1 	1.33 	1 	0.00740148
1 	1.36 	1 	0.00687799
1 	1.38 	1 	0.00656324
1 	1.41 	1 	0.00624519
1 	1.43 	1 	0.00603316
1 	1.45 	1 	0.00582113
1 	1.48 	1 	0.00550308
1 	1.5 	1 	0.00529105
1 	1.53 	1 	0.00505423
1 	1.55 	1 	0.00489635
1 	1.58 	1 	0.00465953
1 	1.6 	1 	0.00450165
1 	1.63 	1 	0.00427562
1 	1.65 	1 	0.0041609
1 	1.67 	1 	0.00404619
1 	1.7 	1 	0.00387411
1 	1.72 	1 	0.00375939
1 	1.75 	1 	0.00358732
1 	1.77 	1 	0.00351813
1 	1.8 	1 	0.00341436
1 	1.82 	1 	0.00334518
1 	1.85 	1 	0.0032414
1 	1.87 	1 	0.00317222
1 	1.89 	1 	0.00313654
1 	1.92 	1 	0.00309978
1 	1.94 	1 	0.00307528
1 	1.97 	1 	0.00303852
1 	1.99 	1 	0.00301402
1 	2.02 	1 	0.00302366
1 	2.04 	1 	0.00304557
1 	2.07 	1 	0.00307842
1 	2.09 	1 	0.00310032
1 	2.11 	1 	0.00312222
1 	2.14 	1 	0.0031976
1 	2.16 	1 	0.0032762
1 	2.19 	1 	0.00339411
1 	2.21 	1 	0.00347271
1 	2.24 	1 	0.00359062
1 	2.26 	1 	0.00370172
1 	2.29 	1 	0.0039171
1 	2.31 	1 	0.00406069
1 	2.33 	1 	0.00420428
1 	2.36 	1 	0.00441966
1 	2.38 	1 	0.00458138
1 	2.41 	1 	0.00490553
1 	2.43 	1 	0.00512163
1 	2.46 	1 	0.00544578
1 	2.48 	1 	0.00566188
1 	2.51 	1 	0.00602442
1 	2.53 	1 	0.00631728
1 	2.55 	1 	0.00661015
1 	2.58 	1 	0.00704945
1 	2.6 	1 	0.00734232
1 	2.63 	1 	0.00779139
1 	2.65 	1 	0.00812334
1 	2.68 	1 	0.00862128
1 	2.7 	1 	0.00895323
1 	2.73 	1 	0.00945116
1 	2.75 	1 	0.00978312
1 	2.77 	1 	0.00977637
1 	2.8 	1 	0.00976625
1 	2.82 	1 	0.0097595
1 	2.85 	1 	0.00974938
1 	2.87 	1 	0.00974264
1 	2.9 	1 	0.00952403
1 	2.92 	1 	0.00935049
1 	2.95 	1 	0.00909019
1 	2.96 	1 	0.00900342
2.02 	0.0212 	1 	0.00839561
2.02 	0.0373 	1 	0.0089077
2.02 	0.0616 	1 	0.00968062
2.02 	0.0861 	1 	0.0104599
2.02 	0.11 	1 	0.0113907
2.02 	0.134 	1 	0.0129765
2.02 	0.159 	1 	0.0144095
2.02 	0.183 	1 	0.0156153
2.02 	0.208 	1 	0.0168713
2.02 	0.232 	1 	0.0180523
2.02 	0.257 	1 	0.019005
2.02 	0.28 	1 	0.0198241
2.02 	0.306 	1 	0.0206434
2.02 	0.33 	1 	0.0213998
2.02 	0.355 	1 	0.0221876
2.02 	0.379 	1 	0.0228307
2.02 	0.403 	1 	0.0234587
2.02 	0.428 	1 	0.0240306
2.02 	0.453 	1 	0.0246026
2.02 	0.477 	1 	0.0251517
2.02 	0.502 	1 	0.0256444
2.02 	0.526 	1 	0.0261113
2.02 	0.551 	1 	0.026512
2.02 	0.574 	1 	0.0268806
2.02 	0.6 	1 	0.0272973
2.02 	0.622 	1 	0.027561
2.02 	0.648 	1 	0.0278608
2.02 	0.673 	1 	0.0280295
2.02 	0.697 	1 	0.0281915
2.02 	0.721 	1 	0.0283535
2.02 	0.746 	1 	0.0283855
2.02 	0.77 	1 	0.0283693
2.02 	0.795 	1 	0.0281043
2.02 	0.818 	1 	0.0278605
2.02 	0.844 	1 	0.0275849
2.02 	0.868 	1 	0.0271407
2.02 	0.893 	1 	0.0265244
2.02 	0.917 	1 	0.0256042
2.02 	0.943 	1 	0.0245743
2.02 	0.966 	1 	0.0236633
2.02 	0.991 	1 	0.0224736
2.02 	1.01 	1 	0.0213794
2.02 	1.04 	1 	0.0196662
2.02 	1.06 	1 	0.0185272
2.02 	1.09 	1 	0.0168188
2.02 	1.11 	1 	0.0156779
2.02 	1.14 	1 	0.0139609
2.02 	1.16 	1 	0.0130176
2.02 	1.19 	1 	0.0117026
2.02 	1.21 	1 	0.0108259
2.02 	1.23 	1 	0.00994921
2.02 	1.26 	1 	0.00901513
2.02 	1.28 	1 	0.00847867
2.02 	1.31 	1 	0.00780242
2.02 	1.33 	1 	0.00735158
2.02 	1.36 	1 	0.00671566
2.02 	1.38 	1 	0.00642617
2.02 	1.41 	1 	0.00603668
2.02 	1.43 	1 	0.00580677
2.02 	1.46 	1 	0.0054619
2.02 	1.48 	1 	0.00523199
2.02 	1.5 	1 	0.00505932
2.02 	1.53 	1 	0.00481355
2.02 	1.55 	1 	0.00466727
2.02 	1.58 	1 	0.00444784
2.02 	1.6 	1 	0.00430156
2.02 	1.63 	1 	0.00411731
2.02 	1.65 	1 	0.00400452
2.02 	1.67 	1 	0.00390781
2.02 	1.7 	1 	0.00376275
2.02 	1.72 	1 	0.00366604
2.02 	1.75 	1 	0.0035451
2.02 	1.77 	1 	0.00347249
2.02 	1.8 	1 	0.00339323
2.02 	1.82 	1 	0.00334039
2.02 	1.85 	1 	0.00326113
2.02 	1.87 	1 	0.00322491
2.02 	1.9 	1 	0.00318368
2.02 	1.92 	1 	0.00317241
2.02 	1.94 	1 	0.00316113
2.02 	1.97 	1 	0.00314421
2.02 	1.99 	1 	0.00314367
2.02 	2.02 	1 	0.00315887
2.02 	2.04 	1 	0.00319325
2.02 	2.07 	1 	0.00324483
2.02 	2.09 	1 	0.00327921
2.02 	2.11 	1 	0.00332016
2.02 	2.14 	1 	0.00341099
2.02 	2.16 	1 	0.00349482
2.02 	2.19 	1 	0.00363225
2.02 	2.21 	1 	0.00372387
2.02 	2.24 	1 	0.00387782
2.02 	2.26 	1 	0.00400237
2.02 	2.29 	1 	0.00422087
2.02 	2.31 	1 	0.00437714
2.02 	2.34 	1 	0.00461154
2.02 	2.36 	1 	0.00477605
2.02 	2.38 	1 	0.00496529
2.02 	2.41 	1 	0.00526935
2.02 	2.43 	1 	0.00548557
2.02 	2.46 	1 	0.00580991
2.02 	2.48 	1 	0.00602613
2.02 	2.51 	1 	0.00638942
2.02 	2.53 	1 	0.00663796
2.02 	2.55 	1 	0.00689272
2.02 	2.58 	1 	0.00727486
2.02 	2.6 	1 	0.00752962
2.02 	2.63 	1 	0.00792031
2.02 	2.65 	1 	0.00817569
2.02 	2.68 	1 	0.00852966
2.02 	2.7 	1 	0.00876564
2.02 	2.73 	1 	0.0091196
2.02 	2.75 	1 	0.00931896
2.02 	2.77 	1 	0.00951835
2.02 	2.8 	1 	0.00947536
2.02 	2.82 	1 	0.00944671
2.02 	2.85 	1 	0.00940372
2.02 	2.87 	1 	0.00920185
2.02 	2.9 	1 	0.00884454
2.02 	2.92 	1 	0.00871288
2.02 	2.95 	1 	0.00851537
2.02 	2.96 	1 	0.00844954
3 	0.021 	1 	0.011217
3 	0.041 	1 	0.0121129
3 	0.0614 	1 	0.0130266
3 	0.0862 	1 	0.0141375
3 	0.111 	1 	0.0152484
3 	0.135 	1 	0.0165755
3 	0.161 	1 	0.0183957
3 	0.184 	1 	0.0200059
3 	0.21 	1 	0.0218261
3 	0.229 	1 	0.0231562
3 	0.257 	1 	0.0249232
3 	0.28 	1 	0.0258988
3 	0.306 	1 	0.0270016
3 	0.329 	1 	0.0279772
3 	0.352 	1 	0.0289527
3 	0.378 	1 	0.0300088
3 	0.405 	1 	0.0307335
3 	0.428 	1 	0.0313508
3 	0.452 	1 	0.0319949
3 	0.476 	1 	0.032639
3 	0.503 	1 	0.0333143
3 	0.526 	1 	0.0335532
3 	0.55 	1 	0.0338025
3 	0.575 	1 	0.0340622
3 	0.6 	1 	0.0343219
3 	0.624 	1 	0.0345712
3 	0.649 	1 	0.0343591
3 	0.672 	1 	0.0341458
3 	0.697 	1 	0.0339141
3 	0.721 	1 	0.0336916
3 	0.746 	1 	0.0334598
3 	0.769 	1 	0.0328159
3 	0.796 	1 	0.0319536
3 	0.819 	1 	0.031219
3 	0.843 	1 	0.0304525
3 	0.868 	1 	0.0296541
3 	0.893 	1 	0.0284792
3 	0.917 	1 	0.0272108
3 	0.942 	1 	0.0258896
3 	0.965 	1 	0.0246741
3 	0.991 	1 	0.0233
3 	1.01 	1 	0.0222246
3 	1.04 	1 	0.0204254
3 	1.06 	1 	0.019226
3 	1.09 	1 	0.0174268
3 	1.11 	1 	0.0162274
3 	1.14 	1 	0.0146319
3 	1.16 	1 	0.013704
3 	1.19 	1 	0.0123123
3 	1.21 	1 	0.0113844
3 	1.24 	1 	0.00999264
3 	1.26 	1 	0.00927396
3 	1.28 	1 	0.00876444
3 	1.31 	1 	0.00800017
3 	1.33 	1 	0.00749065
3 	1.36 	1 	0.00672638
3 	1.38 	1 	0.0062827
3 	1.41 	1 	0.00591344
3 	1.43 	1 	0.00566726
3 	1.45 	1 	0.00542108
3 	1.48 	1 	0.00505182
3 	1.5 	1 	0.00480564
3 	1.53 	1 	0.00460628
3 	1.55 	1 	0.00447337
3 	1.58 	1 	0.00427401
3 	1.6 	1 	0.0041411
3 	1.63 	1 	0.00395604
3 	1.65 	1 	0.00388036
3 	1.67 	1 	0.00380467
3 	1.7 	1 	0.00369114
3 	1.72 	1 	0.00361545
3 	1.75 	1 	0.00350192
3 	1.77 	1 	0.00346817
3 	1.8 	1 	0.00341756
3 	1.82 	1 	0.00338381
3 	1.85 	1 	0.00333319
3 	1.87 	1 	0.00329944
3 	1.89 	1 	0.00329513
3 	1.92 	1 	0.00330338
3 	1.94 	1 	0.00330887
3 	1.97 	1 	0.00331712
3 	1.99 	1 	0.00332262
3 	2.02 	1 	0.00337621
3 	2.04 	1 	0.00342706
3 	2.07 	1 	0.00350332
3 	2.09 	1 	0.00355417
3 	2.12 	1 	0.00363043
3 	2.14 	1 	0.00372264
3 	2.16 	1 	0.00382863
3 	2.19 	1 	0.00398761
3 	2.21 	1 	0.0040936
3 	2.24 	1 	0.00425259
3 	2.26 	1 	0.00438652
3 	2.29 	1 	0.00462935
3 	2.31 	1 	0.00479123
3 	2.34 	1 	0.00503406
3 	2.36 	1 	0.00519594
3 	2.38 	1 	0.00536771
3 	2.41 	1 	0.00566983
3 	2.43 	1 	0.00587124
3 	2.46 	1 	0.00617336
3 	2.48 	1 	0.00637477
3 	2.51 	1 	0.00667984
3 	2.53 	1 	0.00688716
3 	2.55 	1 	0.00709448
3 	2.58 	1 	0.00740545
3 	2.6 	1 	0.00761277
3 	2.63 	1 	0.00791134
3 	2.65 	1 	0.00806906
3 	2.68 	1 	0.00830563
3 	2.7 	1 	0.00846334
3 	2.73 	1 	0.00869991
3 	2.75 	1 	0.00885763
3 	2.78 	1 	0.00877556
3 	2.8 	1 	0.00872085
3 	2.82 	1 	0.00866614
3 	2.85 	1 	0.00858408
3 	2.87 	1 	0.00852937
3 	2.9 	1 	0.00837501
3 	2.92 	1 	0.00826246
3 	2.95 	1 	0.00809364
3 	2.96 	1 	0.00803737
4.02 	0.0203 	1 	0.00981576
4.02 	0.0383 	1 	0.0106702
4.02 	0.0616 	1 	0.0117762
4.02 	0.0862 	1 	0.012944
4.02 	0.111 	1 	0.0144049
4.02 	0.135 	1 	0.0166809
4.02 	0.159 	1 	0.0186464
4.02 	0.184 	1 	0.0204612
4.02 	0.207 	1 	0.0221307
4.02 	0.232 	1 	0.0239
4.02 	0.257 	1 	0.0251488
4.02 	0.281 	1 	0.0262597
4.02 	0.306 	1 	0.027303
4.02 	0.331 	1 	0.0283462
4.02 	0.355 	1 	0.0293477
4.02 	0.379 	1 	0.0301388
4.02 	0.403 	1 	0.0308727
4.02 	0.428 	1 	0.0315052
4.02 	0.452 	1 	0.0321124
4.02 	0.477 	1 	0.0327449
4.02 	0.502 	1 	0.0331986
4.02 	0.525 	1 	0.0335532
4.02 	0.55 	1 	0.0337558
4.02 	0.574 	1 	0.0339503
4.02 	0.598 	1 	0.0341448
4.02 	0.623 	1 	0.0341781
4.02 	0.648 	1 	0.0341197
4.02 	0.672 	1 	0.0338384
4.02 	0.697 	1 	0.0335453
4.02 	0.721 	1 	0.033264
4.02 	0.747 	1 	0.032781
4.02 	0.771 	1 	0.0322415
4.02 	0.795 	1 	0.0314566
4.02 	0.819 	1 	0.0306718
4.02 	0.844 	1 	0.0298543
4.02 	0.868 	1 	0.0289379
4.02 	0.893 	1 	0.0278693
4.02 	0.917 	1 	0.0266807
4.02 	0.941 	1 	0.0254771
4.02 	0.966 	1 	0.0242235
4.02 	0.991 	1 	0.0228977
4.02 	1.01 	1 	0.0218207
4.02 	1.04 	1 	0.0201334
4.02 	1.06 	1 	0.0190127
4.02 	1.09 	1 	0.0173316
4.02 	1.11 	1 	0.016218
4.02 	1.14 	1 	0.0145791
4.02 	1.16 	1 	0.013622
4.02 	1.19 	1 	0.0122542
4.02 	1.21 	1 	0.0113423
4.02 	1.23 	1 	0.0104304
4.02 	1.26 	1 	0.00934008
4.02 	1.28 	1 	0.00870552
4.02 	1.31 	1 	0.00789267
4.02 	1.33 	1 	0.00735077
4.02 	1.36 	1 	0.00658337
4.02 	1.38 	1 	0.00622317
4.02 	1.41 	1 	0.00575536
4.02 	1.43 	1 	0.00549223
4.02 	1.45 	1 	0.00522909
4.02 	1.48 	1 	0.0048344
4.02 	1.5 	1 	0.00466607
4.02 	1.53 	1 	0.00443434
4.02 	1.55 	1 	0.00430832
4.02 	1.58 	1 	0.00411928
4.02 	1.6 	1 	0.00399326
4.02 	1.63 	1 	0.00385767
4.02 	1.65 	1 	0.00378004
4.02 	1.67 	1 	0.00371974
4.02 	1.7 	1 	0.00362929
4.02 	1.72 	1 	0.00356899
4.02 	1.75 	1 	0.00350299
4.02 	1.77 	1 	0.00346709
4.02 	1.8 	1 	0.00344017
4.02 	1.82 	1 	0.00342222
4.02 	1.85 	1 	0.0033953
4.02 	1.87 	1 	0.00339203
4.02 	1.9 	1 	0.00339934
4.02 	1.92 	1 	0.00342038
4.02 	1.94 	1 	0.00344142
4.02 	1.97 	1 	0.00347298
4.02 	1.99 	1 	0.00350458
4.02 	2.02 	1 	0.00356789
4.02 	2.04 	1 	0.00363371
4.02 	2.07 	1 	0.00373244
4.02 	2.09 	1 	0.00379825
4.02 	2.11 	1 	0.00387037
4.02 	2.14 	1 	0.00400696
4.02 	2.16 	1 	0.00411648
4.02 	2.19 	1 	0.00428995
4.02 	2.21 	1 	0.0044056
4.02 	2.24 	1 	0.00459169
4.02 	2.26 	1 	0.00473271
4.02 	2.29 	1 	0.00496164
4.02 	2.31 	1 	0.00512
4.02 	2.34 	1 	0.00535753
4.02 	2.36 	1 	0.00551995
4.02 	2.38 	1 	0.00569463
4.02 	2.41 	1 	0.0059592
4.02 	2.43 	1 	0.00613701
4.02 	2.46 	1 	0.00640373
4.02 	2.48 	1 	0.00658154
4.02 	2.51 	1 	0.00684801
4.02 	2.53 	1 	0.00701784
4.02 	2.56 	1 	0.0072605
4.02 	2.58 	1 	0.00742228
4.02 	2.6 	1 	0.00758406
4.02 	2.63 	1 	0.00780025
4.02 	2.65 	1 	0.00793037
4.02 	2.68 	1 	0.00807778
4.02 	2.7 	1 	0.00817605
4.02 	2.73 	1 	0.00832346
4.02 	2.75 	1 	0.00837318
4.02 	2.78 	1 	0.00837972
4.02 	2.8 	1 	0.00829357
4.02 	2.82 	1 	0.00820741
4.02 	2.85 	1 	0.00807818
4.02 	2.87 	1 	0.00788713
4.02 	2.9 	1 	0.00757636
4.02 	2.92 	1 	0.00746378
4.02 	2.95 	1 	0.00729491
4.02 	2.96 	1 	0.00723862
5 	0.0213 	1 	0.00950121
5 	0.0375 	1 	0.0102213
5 	0.0603 	1 	0.0112349
5 	0.0859 	1 	0.0123729
5 	0.11 	1 	0.0134442
5 	0.135 	1 	0.0147834
5 	0.158 	1 	0.01633
5 	0.183 	1 	0.0180111
5 	0.208 	1 	0.0196921
5 	0.233 	1 	0.0213732
5 	0.256 	1 	0.0227442
5 	0.282 	1 	0.0237318
5 	0.306 	1 	0.0246434
5 	0.329 	1 	0.025517
5 	0.354 	1 	0.0264666
5 	0.379 	1 	0.0273577
5 	0.404 	1 	0.0279422
5 	0.428 	1 	0.0285032
5 	0.452 	1 	0.0290643
5 	0.476 	1 	0.0296253
5 	0.502 	1 	0.030203
5 	0.525 	1 	0.0303943
5 	0.551 	1 	0.0306104
5 	0.574 	1 	0.0308017
5 	0.598 	1 	0.0310012
5 	0.623 	1 	0.031209
5 	0.648 	1 	0.0310248
5 	0.674 	1 	0.0307977
5 	0.697 	1 	0.0305968
5 	0.721 	1 	0.0303872
5 	0.746 	1 	0.0301689
5 	0.771 	1 	0.0295758
5 	0.795 	1 	0.0289379
5 	0.819 	1 	0.0282999
5 	0.844 	1 	0.0276354
5 	0.867 	1 	0.0270241
5 	0.893 	1 	0.026058
5 	0.917 	1 	0.0250534
5 	0.942 	1 	0.0240069
5 	0.966 	1 	0.0230023
5 	0.99 	1 	0.0219976
5 	1.01 	1 	0.0210893
5 	1.04 	1 	0.01962
5 	1.06 	1 	0.0186406
5 	1.09 	1 	0.0171713
5 	1.11 	1 	0.0161918
5 	1.14 	1 	0.0148079
5 	1.16 	1 	0.0139421
5 	1.19 	1 	0.0126434
5 	1.21 	1 	0.0117776
5 	1.23 	1 	0.0109117
5 	1.26 	1 	0.00976174
5 	1.28 	1 	0.00919332
5 	1.31 	1 	0.00834071
5 	1.33 	1 	0.00777229
5 	1.36 	1 	0.00691967
5 	1.38 	1 	0.00642084
5 	1.4 	1 	0.00613072
5 	1.43 	1 	0.00569555
5 	1.46 	1 	0.00526038
5 	1.48 	1 	0.00497027
5 	1.5 	1 	0.00468016
5 	1.53 	1 	0.00448393
5 	1.55 	1 	0.00435312
5 	1.58 	1 	0.00415689
5 	1.6 	1 	0.00402607
5 	1.63 	1 	0.00384919
5 	1.65 	1 	0.00379575
5 	1.67 	1 	0.00374231
5 	1.7 	1 	0.00366215
5 	1.72 	1 	0.00360871
5 	1.75 	1 	0.00352854
5 	1.77 	1 	0.0035212
5 	1.8 	1 	0.00351017
5 	1.82 	1 	0.00350283
5 	1.85 	1 	0.0034918
5 	1.87 	1 	0.00348445
5 	1.9 	1 	0.00352376
5 	1.92 	1 	0.00355667
5 	1.94 	1 	0.00358958
5 	1.97 	1 	0.00363895
5 	1.99 	1 	0.00367186
5 	2.02 	1 	0.00376452
5 	2.04 	1 	0.00384073
5 	2.07 	1 	0.00395504
5 	2.09 	1 	0.00403125
5 	2.12 	1 	0.00414557
5 	2.14 	1 	0.00425388
5 	2.16 	1 	0.0043729
5 	2.19 	1 	0.00455142
5 	2.21 	1 	0.00467044
5 	2.24 	1 	0.00484896
5 	2.26 	1 	0.00498299
5 	2.29 	1 	0.00520656
5 	2.31 	1 	0.0053556
5 	2.34 	1 	0.00557916
5 	2.36 	1 	0.0057282
5 	2.38 	1 	0.00587842
5 	2.41 	1 	0.00610906
5 	2.43 	1 	0.00626282
5 	2.46 	1 	0.00649346
5 	2.48 	1 	0.00664722
5 	2.51 	1 	0.00686384
5 	2.53 	1 	0.00698958
5 	2.56 	1 	0.00717818
5 	2.58 	1 	0.00730391
5 	2.6 	1 	0.00742965
5 	2.63 	1 	0.00760118
5 	2.65 	1 	0.00765863
5 	2.68 	1 	0.0077448
5 	2.7 	1 	0.00780225
5 	2.73 	1 	0.00788842
5 	2.75 	1 	0.00794586
5 	2.78 	1 	0.00776852
5 	2.8 	1 	0.00765029
5 	2.82 	1 	0.00753206
5 	2.85 	1 	0.00735471
5 	2.87 	1 	0.00723648
5 	2.9 	1 	0.00705167
5 	2.92 	1 	0.00692746
5 	2.95 	1 	0.00674114
5 	2.96 	1 	0.00667904
6.02 	0.021 	1 	0.00796552
6.02 	0.0359 	1 	0.00853083
6.02 	0.0614 	1 	0.00949829
6.02 	0.0852 	1 	0.0104013
6.02 	0.111 	1 	0.0116031
6.02 	0.135 	1 	0.0134056
6.02 	0.159 	1 	0.0149653
6.02 	0.183 	1 	0.016352
6.02 	0.208 	1 	0.0177965
6.02 	0.232 	1 	0.0191463
6.02 	0.256 	1 	0.0200902
6.02 	0.282 	1 	0.0210399
6.02 	0.306 	1 	0.0218389
6.02 	0.33 	1 	0.0226379
6.02 	0.355 	1 	0.0234703
6.02 	0.378 	1 	0.0240846
6.02 	0.403 	1 	0.0247076
6.02 	0.428 	1 	0.0252378
6.02 	0.453 	1 	0.025768
6.02 	0.477 	1 	0.026277
6.02 	0.502 	1 	0.026681
6.02 	0.525 	1 	0.0270036
6.02 	0.551 	1 	0.0272377
6.02 	0.575 	1 	0.0274537
6.02 	0.598 	1 	0.0276608
6.02 	0.623 	1 	0.0277716
6.02 	0.648 	1 	0.0278146
6.02 	0.673 	1 	0.0276946
6.02 	0.697 	1 	0.0275793
6.02 	0.721 	1 	0.0274641
6.02 	0.746 	1 	0.0272329
6.02 	0.77 	1 	0.0269502
6.02 	0.795 	1 	0.0264631
6.02 	0.819 	1 	0.0259955
6.02 	0.843 	1 	0.0255278
6.02 	0.868 	1 	0.0249514
6.02 	0.893 	1 	0.0242924
6.02 	0.917 	1 	0.023517
6.02 	0.941 	1 	0.0227286
6.02 	0.966 	1 	0.0219074
6.02 	0.99 	1 	0.0210649
6.02 	1.02 	1 	0.0199172
6.02 	1.04 	1 	0.0190956
6.02 	1.06 	1 	0.018274
6.02 	1.09 	1 	0.0170415
6.02 	1.11 	1 	0.0162107
6.02 	1.14 	1 	0.0149233
6.02 	1.16 	1 	0.0141099
6.02 	1.19 	1 	0.0129121
6.02 	1.21 	1 	0.0121136
6.02 	1.23 	1 	0.011315
6.02 	1.26 	1 	0.0102215
6.02 	1.28 	1 	0.00956276
6.02 	1.31 	1 	0.00868011
6.02 	1.33 	1 	0.00809168
6.02 	1.36 	1 	0.00724382
6.02 	1.38 	1 	0.00679446
6.02 	1.41 	1 	0.00621039
6.02 	1.43 	1 	0.0058813
6.02 	1.46 	1 	0.00538767
6.02 	1.48 	1 	0.00505859
6.02 	1.5 	1 	0.00484468
6.02 	1.53 	1 	0.00455572
6.02 	1.55 	1 	0.00440632
6.02 	1.58 	1 	0.00418223
6.02 	1.6 	1 	0.00403283
6.02 	1.63 	1 	0.00388569
6.02 	1.65 	1 	0.00380585
6.02 	1.67 	1 	0.00375039
6.02 	1.7 	1 	0.00366721
6.02 	1.72 	1 	0.00361175
6.02 	1.75 	1 	0.00356019
6.02 	1.77 	1 	0.00353633
6.02 	1.8 	1 	0.00353322
6.02 	1.82 	1 	0.00353115
6.02 	1.85 	1 	0.00352804
6.02 	1.87 	1 	0.00354251
6.02 	1.89 	1 	0.00356255
6.02 	1.92 	1 	0.00361827
6.02 	1.94 	1 	0.00365883
6.02 	1.97 	1 	0.00371967
6.02 	1.99 	1 	0.00377082
6.02 	2.02 	1 	0.00386356
6.02 	2.04 	1 	0.00394567
6.02 	2.07 	1 	0.00406884
6.02 	2.09 	1 	0.00415095
6.02 	2.12 	1 	0.00428968
6.02 	2.14 	1 	0.00439267
6.02 	2.16 	1 	0.00450729
6.02 	2.19 	1 	0.00468503
6.02 	2.21 	1 	0.00480352
6.02 	2.24 	1 	0.00498889
6.02 	2.26 	1 	0.00512275
6.02 	2.29 	1 	0.00532876
6.02 	2.31 	1 	0.00546779
6.02 	2.33 	1 	0.00560683
6.02 	2.36 	1 	0.00581637
6.02 	2.38 	1 	0.0059594
6.02 	2.41 	1 	0.00616781
6.02 	2.43 	1 	0.00630255
6.02 	2.46 	1 	0.00650467
6.02 	2.48 	1 	0.00663942
6.02 	2.51 	1 	0.00682608
6.02 	2.53 	1 	0.00693885
6.02 	2.56 	1 	0.00709047
6.02 	2.58 	1 	0.00719156
6.02 	2.6 	1 	0.00729264
6.02 	2.63 	1 	0.00741206
6.02 	2.65 	1 	0.00747646
6.02 	2.68 	1 	0.00752436
6.02 	2.7 	1 	0.00755629
6.02 	2.73 	1 	0.00760418
6.02 	2.75 	1 	0.00759045
6.02 	2.77 	1 	0.00757647
6.02 	2.8 	1 	0.00735803
6.02 	2.82 	1 	0.00721241
6.02 	2.85 	1 	0.00699398
6.02 	2.87 	1 	0.00674746
6.02 	2.9 	1 	0.00636205
6.02 	2.92 	1 	0.00622278
6.02 	2.95 	1 	0.00601388
6.02 	2.96 	1 	0.00594424
7 	0.0214 	1 	0.00806572
7 	0.0372 	1 	0.00857494
7 	0.0605 	1 	0.00932588
7 	0.0863 	1 	0.0101574
7 	0.11 	1 	0.0109212
7 	0.135 	1 	0.0118985
7 	0.159 	1 	0.0130837
7 	0.183 	1 	0.0142688
7 	0.208 	1 	0.0155034
7 	0.232 	1 	0.0166886
7 	0.257 	1 	0.0177802
7 	0.282 	1 	0.0185045
7 	0.306 	1 	0.0191998
7 	0.33 	1 	0.0198951
7 	0.355 	1 	0.0206194
7 	0.379 	1 	0.0212751
7 	0.403 	1 	0.0217331
7 	0.428 	1 	0.0222101
7 	0.452 	1 	0.0226681
7 	0.476 	1 	0.023126
7 	0.501 	1 	0.0235934
7 	0.526 	1 	0.0238282
7 	0.55 	1 	0.0240537
7 	0.575 	1 	0.0242885
7 	0.599 	1 	0.0245139
7 	0.623 	1 	0.0247394
7 	0.648 	1 	0.0247225
7 	0.672 	1 	0.0246853
7 	0.697 	1 	0.0246465
7 	0.721 	1 	0.0246093
7 	0.746 	1 	0.0245705
7 	0.77 	1 	0.0242958
7 	0.795 	1 	0.0239602
7 	0.819 	1 	0.023638
7 	0.843 	1 	0.0233158
7 	0.868 	1 	0.0229802
7 	0.893 	1 	0.0224386
7 	0.917 	1 	0.0218417
7 	0.941 	1 	0.0212448
7 	0.966 	1 	0.0206231
7 	0.99 	1 	0.0200262
7 	1.01 	1 	0.0194437
7 	1.04 	1 	0.0184422
7 	1.06 	1 	0.0177745
7 	1.09 	1 	0.016773
7 	1.11 	1 	0.0161053
7 	1.14 	1 	0.015071
7 	1.16 	1 	0.0143597
7 	1.19 	1 	0.0132928
7 	1.21 	1 	0.0125815
7 	1.23 	1 	0.0118702
7 	1.26 	1 	0.0108637
7 	1.28 	1 	0.0102734
7 	1.31 	1 	0.00938798
7 	1.33 	1 	0.00879768
7 	1.36 	1 	0.00791223
7 	1.38 	1 	0.00737653
7 	1.41 	1 	0.00681868
7 	1.43 	1 	0.00644678
7 	1.45 	1 	0.00607488
7 	1.48 	1 	0.00551703
7 	1.5 	1 	0.00514513
7 	1.53 	1 	0.00487398
7 	1.55 	1 	0.00469322
7 	1.58 	1 	0.00442208
7 	1.6 	1 	0.00424132
7 	1.63 	1 	0.0039987
7 	1.65 	1 	0.00393203
7 	1.67 	1 	0.00386536
7 	1.7 	1 	0.00376536
7 	1.72 	1 	0.00369869
7 	1.75 	1 	0.00359869
7 	1.77 	1 	0.00359652
7 	1.8 	1 	0.00359327
7 	1.82 	1 	0.0035911
7 	1.85 	1 	0.00358785
7 	1.87 	1 	0.00358568
7 	1.9 	1 	0.00364075
7 	1.92 	1 	0.00368524
7 	1.94 	1 	0.00372972
7 	1.97 	1 	0.00379645
7 	1.99 	1 	0.00384094
7 	2.02 	1 	0.00394837
7 	2.04 	1 	0.00403355
7 	2.07 	1 	0.00416132
7 	2.09 	1 	0.0042465
7 	2.12 	1 	0.00437428
7 	2.14 	1 	0.00448329
7 	2.16 	1 	0.00460025
7 	2.19 	1 	0.00477569
7 	2.21 	1 	0.00489265
7 	2.24 	1 	0.00506809
7 	2.26 	1 	0.00519224
7 	2.29 	1 	0.00538923
7 	2.31 	1 	0.00552056
7 	2.33 	1 	0.0056519
7 	2.36 	1 	0.00584889
7 	2.38 	1 	0.00597786
7 	2.41 	1 	0.00616067
7 	2.43 	1 	0.00628254
7 	2.46 	1 	0.00646535
7 	2.48 	1 	0.00658722
7 	2.51 	1 	0.00675183
7 	2.53 	1 	0.00683732
7 	2.56 	1 	0.00696556
7 	2.58 	1 	0.00705105
7 	2.6 	1 	0.00713654
7 	2.63 	1 	0.00724757
7 	2.65 	1 	0.00726425
7 	2.68 	1 	0.00728927
7 	2.7 	1 	0.00730595
7 	2.73 	1 	0.00733097
7 	2.75 	1 	0.00734765
7 	2.77 	1 	0.0071824
7 	2.8 	1 	0.00693452
7 	2.82 	1 	0.00676927
7 	2.85 	1 	0.00652138
7 	2.87 	1 	0.00635613
7 	2.9 	1 	0.00612509
7 	2.92 	1 	0.0059733
7 	2.95 	1 	0.00574563
7 	2.96 	1 	0.00566974
8.02 	0.0212 	1 	0.00691017
8.02 	0.0378 	1 	0.00736783
8.02 	0.0596 	1 	0.00796885
8.02 	0.0855 	1 	0.00868291
8.02 	0.11 	1 	0.00949368
8.02 	0.134 	1 	0.0108046
8.02 	0.159 	1 	0.0120001
8.02 	0.184 	1 	0.0130624
8.02 	0.208 	1 	0.0140822
8.02 	0.232 	1 	0.0150762
8.02 	0.258 	1 	0.0158457
8.02 	0.281 	1 	0.0164793
8.02 	0.305 	1 	0.0170874
8.02 	0.33 	1 	0.0177208
8.02 	0.354 	1 	0.0183289
8.02 	0.379 	1 	0.0188509
8.02 	0.404 	1 	0.0193357
8.02 	0.428 	1 	0.0197475
8.02 	0.452 	1 	0.0201593
8.02 	0.476 	1 	0.0205711
8.02 	0.501 	1 	0.020922
8.02 	0.525 	1 	0.0212234
8.02 	0.55 	1 	0.0214586
8.02 	0.574 	1 	0.0216845
8.02 	0.599 	1 	0.0219197
8.02 	0.623 	1 	0.0220735
8.02 	0.648 	1 	0.0221937
8.02 	0.672 	1 	0.0222107
8.02 	0.698 	1 	0.0222291
8.02 	0.721 	1 	0.0222454
8.02 	0.745 	1 	0.022196
8.02 	0.769 	1 	0.022106
8.02 	0.795 	1 	0.0218807
8.02 	0.82 	1 	0.0216591
8.02 	0.843 	1 	0.0214553
8.02 	0.868 	1 	0.0211736
8.02 	0.893 	1 	0.0208359
8.02 	0.918 	1 	0.0203837
8.02 	0.941 	1 	0.0199585
8.02 	0.965 	1 	0.0195149
8.02 	0.99 	1 	0.0190098
8.02 	1.01 	1 	0.0185544
8.02 	1.04 	1 	0.0177954
8.02 	1.06 	1 	0.0172642
8.02 	1.09 	1 	0.0164674
8.02 	1.11 	1 	0.0159211
8.02 	1.14 	1 	0.0150341
8.02 	1.16 	1 	0.0144269
8.02 	1.19 	1 	0.013508
8.02 	1.21 	1 	0.0128953
8.02 	1.23 	1 	0.0122827
8.02 	1.26 	1 	0.0113505
8.02 	1.28 	1 	0.0107567
8.02 	1.31 	1 	0.0099069
8.02 	1.33 	1 	0.00934039
8.02 	1.36 	1 	0.00850547
8.02 	1.38 	1 	0.00799836
8.02 	1.41 	1 	0.00731427
8.02 	1.43 	1 	0.00690917
8.02 	1.46 	1 	0.00630151
8.02 	1.48 	1 	0.00589641
8.02 	1.5 	1 	0.00559033
8.02 	1.53 	1 	0.00517421
8.02 	1.55 	1 	0.00495451
8.02 	1.58 	1 	0.00462495
8.02 	1.6 	1 	0.00440525
8.02 	1.63 	1 	0.00417763
8.02 	1.65 	1 	0.00405214
8.02 	1.67 	1 	0.00396516
8.02 	1.7 	1 	0.00383468
8.02 	1.72 	1 	0.0037477
8.02 	1.75 	1 	0.00366548
8.02 	1.77 	1 	0.00362662
8.02 	1.8 	1 	0.00361483
8.02 	1.82 	1 	0.00360696
8.02 	1.85 	1 	0.00359517
8.02 	1.87 	1 	0.00360971
8.02 	1.89 	1 	0.00363171
8.02 	1.92 	1 	0.0036938
8.02 	1.94 	1 	0.00373907
8.02 	1.97 	1 	0.00380698
8.02 	1.99 	1 	0.00386385
8.02 	2.02 	1 	0.00396655
8.02 	2.04 	1 	0.00405335
8.02 	2.07 	1 	0.00418355
8.02 	2.09 	1 	0.00427036
8.02 	2.12 	1 	0.00441441
8.02 	2.14 	1 	0.0045197
8.02 	2.16 	1 	0.00463296
8.02 	2.19 	1 	0.00480685
8.02 	2.21 	1 	0.00492277
8.02 	2.24 	1 	0.00510193
8.02 	2.26 	1 	0.00522841
8.02 	2.29 	1 	0.00541802
8.02 	2.31 	1 	0.00554439
8.02 	2.33 	1 	0.00567076
8.02 	2.36 	1 	0.00586016
8.02 	2.38 	1 	0.00598594
8.02 	2.41 	1 	0.0061654
8.02 	2.43 	1 	0.00627893
8.02 	2.46 	1 	0.00644921
8.02 	2.48 	1 	0.00656273
8.02 	2.51 	1 	0.00671336
8.02 	2.53 	1 	0.00680115
8.02 	2.55 	1 	0.00687634
8.02 	2.58 	1 	0.00698912
8.02 	2.6 	1 	0.00706431
8.02 	2.63 	1 	0.00714421
8.02 	2.65 	1 	0.00718255
8.02 	2.68 	1 	0.00719287
8.02 	2.7 	1 	0.00719975
8.02 	2.73 	1 	0.00721007
8.02 	2.75 	1 	0.00717397
8.02 	2.77 	1 	0.00713778
8.02 	2.8 	1 	0.00687301
8.02 	2.82 	1 	0.00669649
8.02 	2.85 	1 	0.00643172
8.02 	2.87 	1 	0.00614931
8.02 	2.9 	1 	0.00571231
8.02 	2.92 	1 	0.00555364
8.02 	2.95 	1 	0.00531564
8.02 	2.96 	1 	0.0052363
9 	0.0183 	1 	0.00691121
9 	0.0368 	1 	0.00735166
9 	0.0607 	1 	0.00792066
9 	0.0854 	1 	0.00850872
9 	0.11 	1 	0.00909439
9 	0.134 	1 	0.00978362
9 	0.159 	1 	0.0107062
9 	0.184 	1 	0.0116287
9 	0.208 	1 	0.0125143
9 	0.233 	1 	0.0134369
9 	0.256 	1 	0.0141982
9 	0.28 	1 	0.0147341
9 	0.306 	1 	0.0153148
9 	0.329 	1 	0.0158284
9 	0.355 	1 	0.016409
9 	0.379 	1 	0.0169175
9 	0.403 	1 	0.0172884
9 	0.427 	1 	0.0176593
9 	0.452 	1 	0.0180457
9 	0.477 	1 	0.0184321
9 	0.503 	1 	0.018815
9 	0.525 	1 	0.0190164
9 	0.551 	1 	0.0192543
9 	0.574 	1 	0.0194649
9 	0.598 	1 	0.0196845
9 	0.624 	1 	0.0199225
9 	0.648 	1 	0.0199811
9 	0.672 	1 	0.0200327
9 	0.697 	1 	0.0200865
9 	0.721 	1 	0.0201381
9 	0.746 	1 	0.0201918
9 	0.77 	1 	0.0200882
9 	0.795 	1 	0.0199479
9 	0.82 	1 	0.0198076
9 	0.844 	1 	0.0196729
9 	0.868 	1 	0.0195382
9 	0.893 	1 	0.0192534
9 	0.916 	1 	0.0189396
9 	0.941 	1 	0.0185985
9 	0.965 	1 	0.018271
9 	0.991 	1 	0.0179163
9 	1.01 	1 	0.0175843
9 	1.04 	1 	0.0169569
9 	1.06 	1 	0.0165387
9 	1.09 	1 	0.0159113
9 	1.11 	1 	0.015493
9 	1.14 	1 	0.0147932
9 	1.16 	1 	0.0142785
9 	1.19 	1 	0.0135065
9 	1.21 	1 	0.0129918
9 	1.23 	1 	0.0124771
9 	1.26 	1 	0.0117022
9 	1.28 	1 	0.0111817
9 	1.31 	1 	0.010401
9 	1.33 	1 	0.00988059
9 	1.36 	1 	0.00909992
9 	1.38 	1 	0.008605
9 	1.4 	1 	0.00818668
9 	1.43 	1 	0.00755919
9 	1.46 	1 	0.0069317
9 	1.48 	1 	0.00651337
9 	1.5 	1 	0.00609505
9 	1.53 	1 	0.00570948
9 	1.55 	1 	0.00545244
9 	1.58 	1 	0.00506687
9 	1.6 	1 	0.00480982
9 	1.63 	1 	0.00445995
9 	1.65 	1 	0.00434569
9 	1.67 	1 	0.00423143
9 	1.7 	1 	0.00406003
9 	1.72 	1 	0.00394577
9 	1.75 	1 	0.00377437
9 	1.77 	1 	0.00375512
9 	1.8 	1 	0.00372623
9 	1.82 	1 	0.00370697
9 	1.85 	1 	0.00367808
9 	1.87 	1 	0.00365882
9 	1.9 	1 	0.00370785
9 	1.92 	1 	0.00375092
9 	1.94 	1 	0.00379399
9 	1.97 	1 	0.0038586
9 	1.99 	1 	0.00390167
9 	2.02 	1 	0.00401066
9 	2.04 	1 	0.00409812
9 	2.07 	1 	0.00422931
9 	2.09 	1 	0.00431676
9 	2.12 	1 	0.00444795
9 	2.14 	1 	0.00455643
9 	2.16 	1 	0.00467192
9 	2.19 	1 	0.00484516
9 	2.21 	1 	0.00496065
9 	2.24 	1 	0.00513389
9 	2.26 	1 	0.0052532
9 	2.29 	1 	0.00543789
9 	2.31 	1 	0.00556103
9 	2.34 	1 	0.00574572
9 	2.36 	1 	0.00586885
9 	2.38 	1 	0.00598804
9 	2.41 	1 	0.00614905
9 	2.43 	1 	0.00625639
9 	2.46 	1 	0.00641741
9 	2.48 	1 	0.00652475
9 	2.51 	1 	0.00666559
9 	2.53 	1 	0.0067326
9 	2.55 	1 	0.0067996
9 	2.58 	1 	0.0069001
9 	2.6 	1 	0.00696711
9 	2.63 	1 	0.00705068
9 	2.65 	1 	0.00704994
9 	2.68 	1 	0.00704884
9 	2.7 	1 	0.0070481
9 	2.73 	1 	0.00704699
9 	2.75 	1 	0.00704626
9 	2.78 	1 	0.00677576
9 	2.8 	1 	0.00659543
9 	2.82 	1 	0.0064151
9 	2.85 	1 	0.00614461
9 	2.87 	1 	0.00596428
9 	2.9 	1 	0.00572009
9 	2.92 	1 	0.00556081
9 	2.95 	1 	0.00532189
9 	2.96 	1 	0.00524225
10 	0.0188 	1 	0.00652485
10 	0.0364 	1 	0.00689006
10 	0.0609 	1 	0.00739844
10 	0.0856 	1 	0.00791098
10 	0.11 	1 	0.00841729
10 	0.135 	1 	0.00905195
10 	0.159 	1 	0.00982813
10 	0.184 	1 	0.0106366
10 	0.209 	1 	0.0114452
10 	0.233 	1 	0.0122213
10 	0.257 	1 	0.01291
10 	0.281 	1 	0.013386
10 	0.305 	1 	0.013862
10 	0.33 	1 	0.0143578
10 	0.354 	1 	0.0148338
10 	0.38 	1 	0.01532
10 	0.403 	1 	0.0156409
10 	0.428 	1 	0.0159897
10 	0.453 	1 	0.0163385
10 	0.477 	1 	0.0166734
10 	0.501 	1 	0.017003
10 	0.526 	1 	0.0172212
10 	0.55 	1 	0.0174307
10 	0.575 	1 	0.0176489
10 	0.6 	1 	0.0178671
10 	0.623 	1 	0.0180679
10 	0.648 	1 	0.0181543
10 	0.673 	1 	0.0182293
10 	0.697 	1 	0.0183013
10 	0.721 	1 	0.0183733
10 	0.746 	1 	0.0184483
10 	0.77 	1 	0.018393
10 	0.794 	1 	0.0183122
10 	0.819 	1 	0.0182281
10 	0.843 	1 	0.0181473
10 	0.868 	1 	0.0180631
10 	0.892 	1 	0.0178683
10 	0.917 	1 	0.0176165
10 	0.941 	1 	0.0173747
10 	0.965 	1 	0.017133
10 	0.99 	1 	0.0168811
10 	1.01 	1 	0.016616
10 	1.04 	1 	0.0161227
10 	1.06 	1 	0.0157938
10 	1.09 	1 	0.0153005
10 	1.11 	1 	0.0149717
10 	1.14 	1 	0.0144052
10 	1.16 	1 	0.0139787
10 	1.19 	1 	0.0133389
10 	1.21 	1 	0.0129124
10 	1.23 	1 	0.0124859
10 	1.26 	1 	0.0118283
10 	1.28 	1 	0.0113661