0.0244 	1.02 	1 	0.213425 	-0.00347235 	0
0.0244 	1.04 	1 	0.332339 	-0.00527509 	0
0.0244 	1.06 	1 	0.444642 	-0.00601261 	0
0.0244 	1.09 	1 	0.613098 	-0.00711889 	0
0.0244 	1.11 	1 	0.683812 	-0.00658023 	0
0.0244 	1.14 	1 	0.719633 	-0.00404237 	0
0.0244 	1.16 	1 	0.740372 	-0.00319172 	0
0.0244 	1.19 	1 	0.767214 	-0.00265458 	0
0.0244 	1.21 	1 	0.785109 	-0.00229648 	0
0.0244 	1.23 	1 	0.801741 	-0.00209649 	0
0.0244 	1.26 	1 	0.81998 	-0.00265014 	0
0.0244 	1.28 	1 	0.831574 	-0.00298653 	0
0.0244 	1.31 	1 	0.846766 	-0.00329916 	0
0.0244 	1.33 	1 	0.856893 	-0.00350757 	0
0.0244 	1.36 	1 	0.871119 	-0.00377 	0
0.0244 	1.38 	1 	0.87919 	-0.00386372 	0
0.0244 	1.41 	1 	0.890697 	-0.00397784 	0
0.0244 	1.43 	1 	0.897648 	-0.00406489 	0
0.0244 	1.45 	1 	0.904598 	-0.00415195 	0
0.0244 	1.48 	1 	0.914772 	-0.0042848 	0
0.0244 	1.5 	1 	0.920578 	-0.00438216 	0
0.0244 	1.53 	1 	0.929041 	-0.00448171 	0
0.0244 	1.55 	1 	0.933991 	-0.00453629 	0
0.0244 	1.58 	1 	0.941416 	-0.00461816 	0
0.0244 	1.6 	1 	0.946366 	-0.00467274 	0
0.0244 	1.63 	1 	0.952457 	-0.00473296 	0
0.0244 	1.65 	1 	0.956475 	-0.00474995 	0
0.0244 	1.67 	1 	0.959728 	-0.00474302 	0
0.0244 	1.7 	1 	0.964608 	-0.00473262 	0
0.0244 	1.72 	1 	0.967861 	-0.00472569 	0
0.0244 	1.75 	1 	0.971707 	-0.00468408 	0
0.0244 	1.77 	1 	0.974114 	-0.00462814 	0
0.0244 	1.8 	1 	0.976868 	-0.00453592 	0
0.0244 	1.82 	1 	0.978606 	-0.00447348 	0
0.0244 	1.85 	1 	0.981213 	-0.00437983 	0
0.0244 	1.87 	1 	0.982261 	-0.00431003 	0
0.0244 	1.89 	1 	0.98329 	-0.00422472 	0
0.0244 	1.92 	1 	0.984278 	-0.004088 	0
0.0244 	1.94 	1 	0.984768 	-0.00399652 	0
0.0244 	1.97 	1 	0.985504 	-0.0038593 	0
0.0244 	1.99 	1 	0.985589 	-0.00376494 	0
0.0244 	2.02 	1 	0.985485 	-0.00360424 	0
0.0244 	2.04 	1 	0.984901 	-0.00349567 	0
0.0244 	2.07 	1 	0.983806 	-0.00333467 	0
0.0244 	2.09 	1 	0.983076 	-0.00322733 	0
0.0244 	2.12 	1 	0.981328 	-0.00306639 	0
0.0244 	2.14 	1 	0.979931 	-0.00294805 	0
0.0244 	2.16 	1 	0.978008 	-0.00283085 	0
0.0244 	2.19 	1 	0.974422 	-0.00266147 	0
0.0244 	2.21 	1 	0.972031 	-0.00254854 	0
0.0244 	2.24 	1 	0.967731 	-0.00237888 	0
0.0244 	2.26 	1 	0.964354 	-0.0022594 	0
0.0244 	2.29 	1 	0.958535 	-0.00209431 	0
0.0244 	2.31 	1 	0.954188 	-0.00199863 	0
0.0244 	2.34 	1 	0.947667 	-0.00185512 	0
0.0244 	2.36 	1 	0.94286 	-0.00176655 	0
0.0244 	2.38 	1 	0.937538 	-0.00168345 	0
0.0244 	2.41 	1 	0.929109 	-0.00153383 	0
0.0244 	2.43 	1 	0.922927 	-0.00141761 	0
0.0244 	2.46 	1 	0.913654 	-0.00124327 	0
0.0244 	2.48 	1 	0.907274 	-0.00111835 	0
0.0244 	2.51 	1 	0.896663 	-0.000881158 	0
0.0244 	2.53 	1 	0.88925 	-0.000721676 	0
0.0244 	2.55 	1 	0.880943 	-0.000570833 	0
0.0244 	2.58 	1 	0.868483 	-0.000344567 	0
0.0244 	2.6 	1 	0.860175 	-0.000193724 	0
0.0244 	2.63 	1 	0.845829 	3.58301e-05 	0
0.0244 	2.65 	1 	0.83618 	0.000193601 	0
0.0244 	2.68 	1 	0.818426 	0.000482612 	0
0.0244 	2.7 	1 	0.806589 	0.000675287 	0
0.0244 	2.73 	1 	0.78834 	0.00097396 	0
0.0244 	2.75 	1 	0.774255 	0.00121056 	0
0.0244 	2.78 	1 	0.75152 	0.00155048 	0
0.0244 	2.8 	1 	0.731665 	0.00172577 	0
0.0244 	2.82 	1 	0.711811 	0.00190106 	0
0.0244 	2.85 	1 	0.68203 	0.00216399 	0
0.0244 	2.87 	1 	0.65683 	0.00228159 	0
0.0244 	2.9 	1 	0.616463 	0.00243788 	0
0.0244 	2.92 	1 	0.512403 	0.00205554 	0
0.0244 	2.95 	1 	0.356312 	0.00148203 	0
0.0244 	2.96 	1 	0.304282 	0.00129086 	0
1 	0.017 	1 	-0.0199258 	0.0019782 	0
1 	0.0413 	1 	-0.048408 	0.00480587 	0
1 	0.0609 	1 	-0.0713813 	0.00708662 	0
1 	0.0849 	1 	-0.0995118 	0.00987938 	0
1 	0.112 	1 	-0.131276 	0.0130329 	0
1 	0.134 	1 	-0.143801 	0.0152724 	0
1 	0.16 	1 	-0.135966 	0.0173719 	0
1 	0.183 	1 	-0.129035 	0.0192291 	0
1 	0.207 	1 	-0.121802 	0.0211671 	0
1 	0.233 	1 	-0.113967 	0.0232666 	0
1 	0.256 	1 	-0.106908 	0.0249575 	0
1 	0.281 	1 	-0.0988409 	0.0262831 	0
1 	0.305 	1 	-0.0910966 	0.0275557 	0
1 	0.331 	1 	-0.082707 	0.0289344 	0
1 	0.355 	1 	-0.0749628 	0.030207 	0
1 	0.378 	1 	-0.0674739 	0.0313297 	0
1 	0.404 	1 	-0.0585016 	0.0318686 	0
1 	0.429 	1 	-0.0498744 	0.0323868 	0
1 	0.452 	1 	-0.0419373 	0.0328635 	0
1 	0.476 	1 	-0.0336552 	0.033361 	0
1 	0.502 	1 	-0.0245667 	0.0338165 	0
1 	0.525 	1 	-0.0152946 	0.0333335 	0
1 	0.55 	1 	-0.00521622 	0.0328085 	0
1 	0.575 	1 	0.00486218 	0.0322835 	0
1 	0.599 	1 	0.0145374 	0.0317795 	0
1 	0.623 	1 	0.0242127 	0.0312755 	0
1 	0.648 	1 	0.0382623 	0.0296395 	0
1 	0.673 	1 	0.0526572 	0.0279068 	0
1 	0.697 	1 	0.0664763 	0.0262434 	0
1 	0.721 	1 	0.0802954 	0.0245801 	0
1 	0.746 	1 	0.0946903 	0.0228474 	0
1 	0.77 	1 	0.118595 	0.0194823 	0
1 	0.795 	1 	0.145597 	0.0156225 	0
1 	0.819 	1 	0.171518 	0.0119171 	0
1 	0.844 	1 	0.19852 	0.00805724 	0
1 	0.868 	1 	0.224442 	0.00435181 	0
1 	0.892 	1 	0.263784 	0.000672011 	0
1 	0.917 	1 	0.310521 	-0.00315012 	0
1 	0.942 	1 	0.357258 	-0.00697226 	0
1 	0.966 	1 	0.402126 	-0.0106415 	0
1 	0.991 	1 	0.448864 	-0.0144636 	0
1 	1.01 	1 	0.483849 	-0.015995 	0
1 	1.04 	1 	0.538329 	-0.0164612 	0
1 	1.06 	1 	0.574649 	-0.0167719 	0
1 	1.09 	1 	0.629128 	-0.0172381 	0
1 	1.11 	1 	0.665448 	-0.0175488 	0
1 	1.14 	1 	0.707645 	-0.0175417 	0
1 	1.16 	1 	0.727587 	-0.0172215 	0
1 	1.19 	1 	0.7575 	-0.0167411 	0
1 	1.21 	1 	0.777442 	-0.0164208 	0
1 	1.24 	1 	0.807355 	-0.0159404 	0
1 	1.26 	1 	0.822522 	-0.0158792 	0
1 	1.28 	1 	0.832913 	-0.0160769 	0
1 	1.31 	1 	0.8485 	-0.0163736 	0
1 	1.33 	1 	0.858891 	-0.0165713 	0
1 	1.36 	1 	0.874478 	-0.016868 	0
1 	1.38 	1 	0.883919 	-0.0170057 	0
1 	1.41 	1 	0.893805 	-0.016942 	0
1 	1.43 	1 	0.900396 	-0.0168996 	0
1 	1.45 	1 	0.906986 	-0.0168572 	0
1 	1.48 	1 	0.916873 	-0.0167936 	0
1 	1.5 	1 	0.923463 	-0.0167512 	0
1 	1.53 	1 	0.930103 	-0.0167359 	0
1 	1.55 	1 	0.93453 	-0.0167258 	0
1 	1.58 	1 	0.94117 	-0.0167105 	0
1 	1.6 	1 	0.945597 	-0.0167004 	0
1 	1.63 	1 	0.951818 	-0.0166569 	0
1 	1.65 	1 	0.954572 	-0.016534 	0
1 	1.67 	1 	0.957325 	-0.016411 	0
1 	1.7 	1 	0.961456 	-0.0162266 	0
1 	1.72 	1 	0.964209 	-0.0161036 	0
1 	1.75 	1 	0.968339 	-0.0159192 	0
1 	1.77 	1 	0.969714 	-0.0157515 	0
1 	1.8 	1 	0.971776 	-0.0155 	0
1 	1.82 	1 	0.97315 	-0.0153323 	0
1 	1.85 	1 	0.975212 	-0.0150808 	0
1 	1.87 	1 	0.976587 	-0.0149131 	0
1 	1.89 	1 	0.977122 	-0.014716 	0
1 	1.92 	1 	0.977505 	-0.0144055 	0
1 	1.94 	1 	0.97776 	-0.0141985 	0
1 	1.97 	1 	0.978143 	-0.013888 	0
1 	1.99 	1 	0.978399 	-0.013681 	0
1 	2.02 	1 	0.977626 	-0.0133403 	0
1 	2.04 	1 	0.976726 	-0.0131031 	0
1 	2.07 	1 	0.975377 	-0.0127474 	0
1 	2.09 	1 	0.974477 	-0.0125102 	0
1 	2.11 	1 	0.973577 	-0.0122731 	0
1 	2.14 	1 	0.971042 	-0.0118951 	0
1 	2.16 	1 	0.968562 	-0.0116282 	0
1 	2.19 	1 	0.964843 	-0.011228 	0
1 	2.21 	1 	0.962363 	-0.0109612 	0
1 	2.24 	1 	0.958643 	-0.0105609 	0
1 	2.26 	1 	0.955188 	-0.0102859 	0
1 	2.29 	1 	0.94854 	-0.00986117 	0
1 	2.31 	1 	0.944109 	-0.00957801 	0
1 	2.33 	1 	0.939677 	-0.00929484 	0
1 	2.36 	1 	0.93303 	-0.0088701 	0
1 	2.38 	1 	0.928108 	-0.00858144 	0
1 	2.41 	1 	0.918519 	-0.00812371 	0
1 	2.43 	1 	0.912127 	-0.00781856 	0
1 	2.46 	1 	0.902538 	-0.00736084 	0
1 	2.48 	1 	0.896146 	-0.00705569 	0
1 	2.51 	1 	0.885471 	-0.00658141 	0
1 	2.53 	1 	0.876906 	-0.00624315 	0
1 	2.55 	1 	0.868341 	-0.00590489 	0
1 	2.58 	1 	0.855493 	-0.0053975 	0
1 	2.6 	1 	0.846928 	-0.00505924 	0
1 	2.63 	1 	0.833295 	-0.00454854 	0
1 	2.65 	1 	0.821587 	-0.00419707 	0
1 	2.68 	1 	0.804026 	-0.00366985 	0
1 	2.7 	1 	0.792318 	-0.00331837 	0
1 	2.73 	1 	0.774757 	-0.00279116 	0
1 	2.75 	1 	0.763049 	-0.00243968 	0
1 	2.77 	1 	0.744718 	-0.00213595 	0
1 	2.8 	1 	0.717223 	-0.00168035 	0
1 	2.82 	1 	0.698892 	-0.00137662 	0
1 	2.85 	1 	0.671396 	-0.000921018 	0
1 	2.87 	1 	0.653066 	-0.000617286 	0
1 	2.9 	1 	0.518786 	-0.000433082 	0
1 	2.92 	1 	0.415029 	-0.000346466 	0
1 	2.95 	1 	0.259393 	-0.000216541 	0
1 	2.96 	1 	0.207515 	-0.000173233 	0
2.02 	0.0212 	1 	-0.0768872 	-0.000259274 	0
2.02 	0.0373 	1 	-0.103268 	-0.000144868 	0
2.02 	0.0616 	1 	-0.143084 	2.78067e-05 	0
2.02 	0.0861 	1 	-0.183228 	0.000201903 	0
2.02 	0.11 	1 	-0.211831 	0.000381133 	0
2.02 	0.134 	1 	-0.20063 	0.000589358 	0
2.02 	0.159 	1 	-0.188983 	0.000713081 	0
2.02 	0.183 	1 	-0.177617 	0.000771295 	0
2.02 	0.208 	1 	-0.165777 	0.000831934 	0
2.02 	0.232 	1 	-0.154349 	0.000850334 	0
2.02 	0.257 	1 	-0.141845 	0.00040115 	0
2.02 	0.28 	1 	-0.130211 	-3.36844e-05 	0
2.02 	0.306 	1 	-0.116538 	-0.000514737 	0
2.02 	0.33 	1 	-0.103918 	-0.000958785 	0
2.02 	0.355 	1 	-0.0907709 	-0.00142134 	0
2.02 	0.379 	1 	-0.0769329 	-0.00215572 	0
2.02 	0.403 	1 	-0.0628739 	-0.00300094 	0
2.02 	0.428 	1 	-0.0473915 	-0.00396952 	0
2.02 	0.453 	1 	-0.031909 	-0.00493811 	0
2.02 	0.477 	1 	-0.0170459 	-0.00586796 	0
2.02 	0.502 	1 	8.7462e-06 	-0.00714365 	0
2.02 	0.526 	1 	0.016894 	-0.00856515 	0
2.02 	0.551 	1 	0.0357268 	-0.0101991 	0
2.02 	0.574 	1 	0.0530529 	-0.0117023 	0
2.02 	0.6 	1 	0.072639 	-0.0134016 	0
2.02 	0.622 	1 	0.0907082 	-0.0150089 	0
2.02 	0.648 	1 	0.112898 	-0.0171074 	0
2.02 	0.673 	1 	0.136324 	-0.0193153 	0
2.02 	0.697 	1 	0.158813 	-0.021435 	0
2.02 	0.721 	1 	0.181302 	-0.0235546 	0
2.02 	0.746 	1 	0.206429 	-0.0258173 	0
2.02 	0.77 	1 	0.231601 	-0.0280979 	0
2.02 	0.795 	1 	0.260839 	-0.030504 	0
2.02 	0.818 	1 	0.287738 	-0.0327177 	0
2.02 	0.844 	1 	0.318146 	-0.03522 	0
2.02 	0.868 	1 	0.347628 	-0.0374209 	0
2.02 	0.893 	1 	0.379731 	-0.0396599 	0
2.02 	0.917 	1 	0.412584 	-0.0413461 	0
2.02 	0.943 	1 	0.44837 	-0.0431256 	0
2.02 	0.966 	1 	0.480027 	-0.0446997 	0
2.02 	0.991 	1 	0.514985 	-0.0460886 	0
2.02 	1.01 	1 	0.542132 	-0.0468462 	0
2.02 	1.04 	1 	0.582937 	-0.0474924 	0
2.02 	1.06 	1 	0.609432 	-0.0477334 	0
2.02 	1.09 	1 	0.649175 	-0.0480949 	0
2.02 	1.11 	1 	0.67493 	-0.0481837 	0
2.02 	1.14 	1 	0.710262 	-0.0476542 	0
2.02 	1.16 	1 	0.730192 	-0.0473227 	0
2.02 	1.19 	1 	0.758265 	-0.0468289 	0
2.02 	1.21 	1 	0.77698 	-0.0464996 	0
2.02 	1.23 	1 	0.795696 	-0.0461704 	0
2.02 	1.26 	1 	0.816068 	-0.0456535 	0
2.02 	1.28 	1 	0.828184 	-0.0453207 	0
2.02 	1.31 	1 	0.844116 	-0.0448112 	0
2.02 	1.33 	1 	0.854736 	-0.0444716 	0
2.02 	1.36 	1 	0.869918 	-0.0439434 	0
2.02 	1.38 	1 	0.877553 	-0.0435344 	0
2.02 	1.41 	1 	0.88799 	-0.0429712 	0
2.02 	1.43 	1 	0.894229 	-0.042613 	0
2.02 	1.46 	1 	0.903587 	-0.0420757 	0
2.02 	1.48 	1 	0.909826 	-0.0417174 	0
2.02 	1.5 	1 	0.914602 	-0.0413423 	0
2.02 	1.53 	1 	0.921385 	-0.0407924 	0
2.02 	1.55 	1 	0.925296 	-0.0404037 	0
2.02 	1.58 	1 	0.931161 	-0.0398206 	0
2.02 	1.6 	1 	0.935072 	-0.0394318 	0
2.02 	1.63 	1 	0.939744 	-0.0387459 	0
2.02 	1.65 	1 	0.942564 	-0.0382896 	0
2.02 	1.67 	1 	0.94486 	-0.037837 	0
2.02 	1.7 	1 	0.948305 	-0.0371582 	0
2.02 	1.72 	1 	0.950601 	-0.0367056 	0
2.02 	1.75 	1 	0.953307 	-0.0359871 	0
2.02 	1.77 	1 	0.95491 	-0.0355094 	0
2.02 	1.8 	1 	0.956492 	-0.0347908 	0
2.02 	1.82 	1 	0.957546 	-0.0343117 	0
2.02 	1.85 	1 	0.959128 	-0.0335931 	0
2.02 	1.87 	1 	0.959751 	-0.0330815 	0
2.02 	1.9 	1 	0.960393 	-0.0323146 	0
2.02 	1.92 	1 	0.960401 	-0.0318093 	0
2.02 	1.94 	1 	0.96041 	-0.031304 	0
2.02 	1.97 	1 	0.960422 	-0.0305461 	0
2.02 	1.99 	1 	0.960162 	-0.0300233 	0
2.02 	2.02 	1 	0.959409 	-0.029224 	0
2.02 	2.04 	1 	0.958258 	-0.0286918 	0
2.02 	2.07 	1 	0.956532 	-0.0278934 	0
2.02 	2.09 	1 	0.955381 	-0.0273611 	0
2.02 	2.11 	1 	0.954057 	-0.0268184 	0
2.02 	2.14 	1 	0.951322 	-0.0259642 	0
2.02 	2.16 	1 	0.948835 	-0.0253973 	0
2.02 	2.19 	1 	0.944764 	-0.0245457 	0
2.02 	2.21 	1 	0.94205 	-0.023978 	0
2.02 	2.24 	1 	0.937508 	-0.0231053 	0
2.02 	2.26 	1 	0.933872 	-0.0224997 	0
2.02 	2.29 	1 	0.927441 	-0.0216028 	0
2.02 	2.31 	1 	0.922819 	-0.0210067 	0
2.02 	2.34 	1 	0.915886 	-0.0201126 	0
2.02 	2.36 	1 	0.911006 	-0.019508 	0
2.02 	2.38 	1 	0.905362 	-0.0188795 	0
2.02 	2.41 	1 	0.896204 	-0.0179473 	0
2.02 	2.43 	1 	0.889607 	-0.0173277 	0
2.02 	2.46 	1 	0.879712 	-0.0163982 	0
2.02 	2.48 	1 	0.873116 	-0.0157785 	0
2.02 	2.51 	1 	0.861733 	-0.014798 	0
2.02 	2.53 	1 	0.853588 	-0.0141524 	0
2.02 	2.55 	1 	0.84486 	-0.0135111 	0
2.02 	2.58 	1 	0.831769 	-0.0125491 	0
2.02 	2.6 	1 	0.823042 	-0.0119078 	0
2.02 	2.63 	1 	0.808487 	-0.0109102 	0
2.02 	2.65 	1 	0.798191 	-0.0102471 	0
2.02 	2.68 	1 	0.780826 	-0.00926631 	0
2.02 	2.7 	1 	0.769249 	-0.00861248 	0
2.02 	2.73 	1 	0.751884 	-0.00763174 	0
2.02 	2.75 	1 	0.738611 	-0.00695266 	0
2.02 	2.77 	1 	0.725377 	-0.00627679 	0
2.02 	2.8 	1 	0.699129 	-0.00537269 	0
2.02 	2.82 	1 	0.681631 	-0.00476995 	0
2.02 	2.85 	1 	0.655383 	-0.00386585 	0
2.02 	2.87 	1 	0.634746 	-0.0032895 	0
2.02 	2.9 	1 	0.582489 	-0.00245803 	0
2.02 	2.92 	1 	0.481706 	-0.0019619 	0
2.02 	2.95 	1 	0.33053 	-0.00121771 	0
2.02 	2.96 	1 	0.280138 	-0.000969644 	0
3 	0.021 	1 	-0.0263479 	-0.00202546 	0
3 	0.041 	1 	-0.0514412 	-0.00395446 	0
3 	0.0614 	1 	-0.0770364 	-0.00592205 	0
3 	0.0862 	1 	-0.108152 	-0.00831401 	0
3 	0.111 	1 	-0.139268 	-0.010706 	0
3 	0.135 	1 	-0.151648 	-0.0127836 	0
3 	0.161 	1 	-0.138168 	-0.0146746 	0
3 	0.184 	1 	-0.126243 	-0.0163474 	0
3 	0.21 	1 	-0.112762 	-0.0182384 	0
3 	0.229 	1 	-0.102911 	-0.0196203 	0
3 	0.257 	1 	-0.0879557 	-0.0217267 	0
3 	0.28 	1 	-0.074593 	-0.0236293 	0
3 	0.306 	1 	-0.0594873 	-0.0257802 	0
3 	0.329 	1 	-0.0461246 	-0.0276828 	0
3 	0.352 	1 	-0.0327619 	-0.0295855 	0
3 	0.378 	1 	-0.0173453 	-0.0317348 	0
3 	0.405 	1 	0.00114006 	-0.0339549 	0
3 	0.428 	1 	0.0168868 	-0.0358461 	0
3 	0.452 	1 	0.0333182 	-0.0378195 	0
3 	0.476 	1 	0.0497496 	-0.0397929 	0
3 	0.503 	1 	0.06859 	-0.0419993 	0
3 	0.526 	1 	0.0870596 	-0.0437857 	0
3 	0.55 	1 	0.106332 	-0.0456498 	0
3 	0.575 	1 	0.126408 	-0.0475916 	0
3 	0.6 	1 	0.146483 	-0.0495334 	0
3 	0.624 	1 	0.165756 	-0.0513975 	0
3 	0.649 	1 	0.188832 	-0.053142 	0
3 	0.672 	1 	0.210177 	-0.0547395 	0
3 	0.697 	1 	0.233378 	-0.0564758 	0
3 	0.721 	1 	0.255651 	-0.0581427 	0
3 	0.746 	1 	0.278852 	-0.059879 	0
3 	0.769 	1 	0.302412 	-0.0611943 	0
3 	0.796 	1 	0.330617 	-0.0626685 	0
3 	0.819 	1 	0.354643 	-0.0639244 	0
3 	0.843 	1 	0.379713 	-0.0652348 	0
3 	0.868 	1 	0.405828 	-0.0665998 	0
3 	0.893 	1 	0.433171 	-0.0675276 	0
3 	0.917 	1 	0.459878 	-0.0682551 	0
3 	0.942 	1 	0.487698 	-0.0690128 	0
3 	0.965 	1 	0.513293 	-0.0697099 	0
3 	0.991 	1 	0.542226 	-0.070498 	0
3 	1.01 	1 	0.562762 	-0.0707611 	0
3 	1.04 	1 	0.594323 	-0.0707319 	0
3 	1.06 	1 	0.615364 	-0.0707125 	0
3 	1.09 	1 	0.646926 	-0.0706834 	0
3 	1.11 	1 	0.667967 	-0.070664 	0
3 	1.14 	1 	0.695958 	-0.0702864 	0
3 	1.16 	1 	0.712238 	-0.0698024 	0
3 	1.19 	1 	0.736658 	-0.0690764 	0
3 	1.21 	1 	0.752938 	-0.0685924 	0
3 	1.24 	1 	0.777358 	-0.0678664 	0
3 	1.26 	1 	0.790651 	-0.067312 	0
3 	1.28 	1 	0.800957 	-0.0666872 	0
3 	1.31 	1 	0.816416 	-0.0657499 	0
3 	1.33 	1 	0.826722 	-0.0651251 	0
3 	1.36 	1 	0.842181 	-0.0641879 	0
3 	1.38 	1 	0.851427 	-0.0635591 	0
3 	1.41 	1 	0.86052 	-0.0625983 	0
3 	1.43 	1 	0.866583 	-0.0619578 	0
3 	1.45 	1 	0.872645 	-0.0613172 	0
3 	1.48 	1 	0.881739 	-0.0603564 	0
3 	1.5 	1 	0.887801 	-0.0597159 	0
3 	1.53 	1 	0.893232 	-0.0587084 	0
3 	1.55 	1 	0.896853 	-0.0580368 	0
3 	1.58 	1 	0.902284 	-0.0570293 	0
3 	1.6 	1 	0.905905 	-0.0563576 	0
3 	1.63 	1 	0.910943 	-0.0553424 	0
3 	1.65 	1 	0.912994 	-0.0546395 	0
3 	1.67 	1 	0.915043 	-0.0539366 	0
3 	1.7 	1 	0.918119 	-0.0528822 	0
3 	1.72 	1 	0.920168 	-0.0521793 	0
3 	1.75 	1 	0.923243 	-0.051125 	0
3 	1.77 	1 	0.924123 	-0.0504029 	0
3 	1.8 	1 	0.925442 	-0.0493197 	0
3 	1.82 	1 	0.926322 	-0.0485976 	0
3 	1.85 	1 	0.927641 	-0.0475144 	0
3 	1.87 	1 	0.92852 	-0.0467923 	0
3 	1.89 	1 	0.928612 	-0.0460551 	0
3 	1.92 	1 	0.928355 	-0.0449416 	0
3 	1.94 	1 	0.928183 	-0.0441993 	0
3 	1.97 	1 	0.927926 	-0.0430859 	0
3 	1.99 	1 	0.927754 	-0.0423436 	0
3 	2.02 	1 	0.926272 	-0.0411996 	0
3 	2.04 	1 	0.924876 	-0.0404268 	0
3 	2.07 	1 	0.922782 	-0.0392677 	0
3 	2.09 	1 	0.921385 	-0.0384949 	0
3 	2.12 	1 	0.919291 	-0.0373357 	0
3 	2.14 	1 	0.916704 	-0.0365335 	0
3 	2.16 	1 	0.913721 	-0.0357215 	0
3 	2.19 	1 	0.909245 	-0.0345036 	0
3 	2.21 	1 	0.906261 	-0.0336916 	0
3 	2.24 	1 	0.901786 	-0.0324737 	0
3 	2.26 	1 	0.897873 	-0.0316451 	0
3 	2.29 	1 	0.89061 	-0.0303771 	0
3 	2.31 	1 	0.885767 	-0.0295319 	0
3 	2.34 	1 	0.878504 	-0.0282639 	0
3 	2.36 	1 	0.873662 	-0.0274186 	0
3 	2.38 	1 	0.868339 	-0.0265671 	0
3 	2.41 	1 	0.858189 	-0.0252619 	0
3 	2.43 	1 	0.851422 	-0.0243918 	0
3 	2.46 	1 	0.841272 	-0.0230866 	0
3 	2.48 	1 	0.834506 	-0.0222165 	0
3 	2.51 	1 	0.823329 	-0.0209045 	0
3 	2.53 	1 	0.814509 	-0.0200208 	0
3 	2.55 	1 	0.805688 	-0.0191372 	0
3 	2.58 	1 	0.792458 	-0.0178117 	0
3 	2.6 	1 	0.783637 	-0.016928 	0
3 	2.63 	1 	0.769738 	-0.0155997 	0
3 	2.65 	1 	0.758242 	-0.014705 	0
3 	2.68 	1 	0.740998 	-0.0133629 	0
3 	2.7 	1 	0.729502 	-0.0124682 	0
3 	2.73 	1 	0.712258 	-0.0111261 	0
3 	2.75 	1 	0.700762 	-0.0102314 	0
3 	2.78 	1 	0.67533 	-0.00896114 	0
3 	2.8 	1 	0.658376 	-0.00811433 	0
3 	2.82 	1 	0.641421 	-0.00726752 	0
3 	2.85 	1 	0.61599 	-0.00599731 	0
3 	2.87 	1 	0.599036 	-0.0051505 	0
3 	2.9 	1 	0.475838 	-0.00395104 	0
3 	2.92 	1 	0.38067 	-0.00316083 	0
3 	2.95 	1 	0.237919 	-0.00197552 	0
3 	2.96 	1 	0.190335 	-0.00158041 	0
4.02 	0.0203 	1 	-0.0269411 	-0.00349506 	0
4.02 	0.0383 	1 	-0.035496 	-0.00571375 	0
4.02 	0.0616 	1 	-0.0465699 	-0.00858571 	0
4.02 	0.0862 	1 	-0.0582616 	-0.0116179 	0
4.02 	0.111 	1 	-0.0642474 	-0.0143798 	0
4.02 	0.135 	1 	-0.0524429 	-0.0161621 	0
4.02 	0.159 	1 	-0.0405701 	-0.0180682 	0
4.02 	0.184 	1 	-0.0281589 	-0.0201419 	0
4.02 	0.207 	1 	-0.0167406 	-0.0220496 	0
4.02 	0.232 	1 	-0.00433059 	-0.0241377 	0
4.02 	0.257 	1 	0.00807138 	-0.0263971 	0
4.02 	0.281 	1 	0.0204391 	-0.0285846 	0
4.02 	0.306 	1 	0.0338721 	-0.0308712 	0
4.02 	0.331 	1 	0.0473051 	-0.0331577 	0
4.02 	0.355 	1 	0.0602007 	-0.0353528 	0
4.02 	0.379 	1 	0.0738817 	-0.0375387 	0
4.02 	0.403 	1 	0.0879969 	-0.0397008 	0
4.02 	0.428 	1 	0.103556 	-0.0418616 	0
4.02 	0.452 	1 	0.118493 	-0.0439361 	0
4.02 	0.477 	1 	0.134052 	-0.0460969 	0
4.02 	0.502 	1 	0.150516 	-0.0481135 	0
4.02 	0.525 	1 	0.166067 	-0.0499433 	0
4.02 	0.55 	1 	0.184005 	-0.0517971 	0
4.02 	0.574 	1 	0.201225 	-0.0535768 	0
4.02 	0.598 	1 	0.218445 	-0.0553565 	0
4.02 	0.623 	1 	0.237096 	-0.0570612 	0
4.02 	0.648 	1 	0.256206 	-0.058717 	0
4.02 	0.672 	1 	0.275601 	-0.0601354 	0
4.02 	0.697 	1 	0.295804 	-0.0616129 	0
4.02 	0.721 	1 	0.315199 	-0.0630313 	0
4.02 	0.747 	1 	0.336772 	-0.0644032 	0
4.02 	0.771 	1 	0.357029 	-0.0656111 	0
4.02 	0.795 	1 	0.378181 	-0.0665915 	0
4.02 	0.819 	1 	0.399333 	-0.067572 	0
4.02 	0.844 	1 	0.421366 	-0.0685933 	0
4.02 	0.868 	1 	0.442764 	-0.0694259 	0
4.02 	0.893 	1 	0.465289 	-0.0701899 	0
4.02 	0.917 	1 	0.487188 	-0.070676 	0
4.02 	0.941 	1 	0.509111 	-0.0711387 	0
4.02 	0.966 	1 	0.531947 	-0.0716208 	0
4.02 	0.991 	1 	0.554678 	-0.0719658 	0
4.02 	1.01 	1 	0.571855 	-0.0721098 	0
4.02 	1.04 	1 	0.598183 	-0.0721276 	0
4.02 	1.06 	1 	0.615469 	-0.0720629 	0
4.02 	1.09 	1 	0.641398 	-0.0719657 	0
4.02 	1.11 	1 	0.658387 	-0.0718438 	0
4.02 	1.14 	1 	0.682525 	-0.0714248 	0
4.02 	1.16 	1 	0.697103 	-0.07105 	0
4.02 	1.19 	1 	0.718215 	-0.0704329 	0
4.02 	1.21 	1 	0.732289 	-0.0700216 	0
4.02 	1.23 	1 	0.746364 	-0.0696102 	0
4.02 	1.26 	1 	0.764081 	-0.068809 	0
4.02 	1.28 	1 	0.774776 	-0.0682672 	0
4.02 	1.31 	1 	0.78916 	-0.0674149 	0
4.02 	1.33 	1 	0.798749 	-0.0668467 	0
4.02 	1.36 	1 	0.812555 	-0.0659853 	0
4.02 	1.38 	1 	0.819831 	-0.0653872 	0
4.02 	1.41 	1 	0.829611 	-0.0644932 	0
4.02 	1.43 	1 	0.835388 	-0.0638786 	0
4.02 	1.45 	1 	0.841165 	-0.0632641 	0
4.02 	1.48 	1 	0.84983 	-0.0623423 	0
4.02 	1.5 	1 	0.854076 	-0.0617053 	0
4.02 	1.53 	1 	0.85998 	-0.060769 	0
4.02 	1.55 	1 	0.863324 	-0.0601179 	0
4.02 	1.58 	1 	0.868339 	-0.0591412 	0
4.02 	1.6 	1 	0.871683 	-0.0584901 	0
4.02 	1.63 	1 	0.875536 	-0.0574871 	0
4.02 	1.65 	1 	0.877789 	-0.0568259 	0
4.02 	1.67 	1 	0.879595 	-0.0561377 	0
4.02 	1.7 	1 	0.882304 	-0.0551055 	0
4.02 	1.72 	1 	0.884109 	-0.0544173 	0
4.02 	1.75 	1 	0.886185 	-0.0533628 	0
4.02 	1.77 	1 	0.887344 	-0.0526756 	0
4.02 	1.8 	1 	0.88834 	-0.0515943 	0
4.02 	1.82 	1 	0.889003 	-0.0508734 	0
4.02 	1.85 	1 	0.889999 	-0.0497921 	0
4.02 	1.87 	1 	0.890264 	-0.049055 	0
4.02 	1.9 	1 	0.890313 	-0.0479591 	0
4.02 	1.92 	1 	0.88989 	-0.0472022 	0
4.02 	1.94 	1 	0.889468 	-0.0464452 	0
4.02 	1.97 	1 	0.888833 	-0.0453099 	0
4.02 	1.99 	1 	0.888118 	-0.04454 	0
4.02 	2.02 	1 	0.886598 	-0.0433856 	0
4.02 	2.04 	1 	0.884884 	-0.0425838 	0
4.02 	2.07 	1 	0.882312 	-0.0413812 	0
4.02 	2.09 	1 	0.880598 	-0.0405795 	0
4.02 	2.11 	1 	0.878697 	-0.0397702 	0
4.02 	2.14 	1 	0.875003 	-0.0385358 	0
4.02 	2.16 	1 	0.871903 	-0.0376946 	0
4.02 	2.19 	1 	0.866937 	-0.0364192 	0
4.02 	2.21 	1 	0.863626 	-0.035569 	0
4.02 	2.24 	1 	0.858215 	-0.0342795 	0
4.02 	2.26 	1 	0.854011 	-0.0334087 	0
4.02 	2.29 	1 	0.846809 	-0.0320868 	0
4.02 	2.31 	1 	0.841711 	-0.0311964 	0
4.02 	2.34 	1 	0.834063 	-0.0298608 	0
4.02 	2.36 	1 	0.828734 	-0.0289654 	0
4.02 	2.38 	1 	0.822709 	-0.0280582 	0
4.02 	2.41 	1 	0.812987 	-0.0266963 	0
4.02 	2.43 	1 	0.806054 	-0.0257777 	0
4.02 	2.46 	1 	0.795656 	-0.0243998 	0
4.02 	2.48 	1 	0.788724 	-0.0234812 	0
4.02 	2.51 	1 	0.776937 	-0.0220875 	0
4.02 	2.53 	1 	0.76856 	-0.0211609 	0
4.02 	2.56 	1 	0.755223 	-0.0197642 	0
4.02 	2.58 	1 	0.746332 	-0.018833 	0
4.02 	2.6 	1 	0.73744 	-0.0179019 	0
4.02 	2.63 	1 	0.722805 	-0.0165048 	0
4.02 	2.65 	1 	0.712493 	-0.0155764 	0
4.02 	2.68 	1 	0.695335 	-0.0141673 	0
4.02 	2.7 	1 	0.683896 	-0.0132279 	0
4.02 	2.73 	1 	0.666739 	-0.0118188 	0
4.02 	2.75 	1 	0.653806 	-0.0108729 	0
4.02 	2.78 	1 	0.632603 	-0.00948561 	0
4.02 	2.8 	1 	0.616079 	-0.0085916 	0
4.02 	2.82 	1 	0.599555 	-0.00769758 	0
4.02 	2.85 	1 	0.574768 	-0.00635656 	0
4.02 	2.87 	1 	0.555595 	-0.00550323 	0
4.02 	2.9 	1 	0.50846 	-0.00424443 	0
4.02 	2.92 	1 	0.420228 	-0.00339613 	0
4.02 	2.95 	1 	0.287879 	-0.00212367 	0
4.02 	2.96 	1 	0.243763 	-0.00169952 	0
5 	0.0213 	1 	0.0065511 	-0.00251838 	0
5 	0.0375 	1 	0.0115336 	-0.00443376 	0
5 	0.0603 	1 	0.0185461 	-0.00712949 	0
5 	0.0859 	1 	0.0264197 	-0.0101563 	0
5 	0.11 	1 	0.033832 	-0.0130057 	0
5 	0.135 	1 	0.0429629 	-0.0154304 	0
5 	0.158 	1 	0.0533531 	-0.0169282 	0
5 	0.183 	1 	0.0646468 	-0.0185562 	0
5 	0.208 	1 	0.0759404 	-0.0201843 	0
5 	0.233 	1 	0.0872341 	-0.0218123 	0
5 	0.256 	1 	0.0977322 	-0.0233766 	0
5 	0.282 	1 	0.109945 	-0.0253577 	0
5 	0.306 	1 	0.121218 	-0.0271864 	0
5 	0.329 	1 	0.132022 	-0.028939 	0
5 	0.354 	1 	0.143765 	-0.0308439 	0
5 	0.379 	1 	0.155784 	-0.0327365 	0
5 	0.404 	1 	0.169252 	-0.0345641 	0
5 	0.428 	1 	0.182181 	-0.0363187 	0
5 	0.452 	1 	0.19511 	-0.0380732 	0
5 	0.476 	1 	0.208039 	-0.0398277 	0
5 	0.502 	1 	0.222195 	-0.0417044 	0
5 	0.525 	1 	0.236307 	-0.0431087 	0
5 	0.551 	1 	0.25226 	-0.0446961 	0
5 	0.574 	1 	0.266371 	-0.0461003 	0
5 	0.598 	1 	0.281097 	-0.0475657 	0
5 	0.623 	1 	0.296436 	-0.049092 	0
5 	0.648 	1 	0.31335 	-0.0503001 	0
5 	0.674 	1 	0.331084 	-0.0515276 	0
5 	0.697 	1 	0.346771 	-0.0526136 	0
5 	0.721 	1 	0.36314 	-0.0537467 	0
5 	0.746 	1 	0.380191 	-0.054927 	0
5 	0.771 	1 	0.398352 	-0.0557785 	0
5 	0.795 	1 	0.41599 	-0.0565358 	0
5 	0.819 	1 	0.433627 	-0.0572931 	0
5 	0.844 	1 	0.452 	-0.0580819 	0
5 	0.867 	1 	0.468903 	-0.0588076 	0
5 	0.893 	1 	0.488415 	-0.0593192 	0
5 	0.917 	1 	0.506593 	-0.0596648 	0
5 	0.942 	1 	0.525529 	-0.0600248 	0
5 	0.966 	1 	0.543707 	-0.0603704 	0
5 	0.99 	1 	0.561885 	-0.060716 	0
5 	1.01 	1 	0.576715 	-0.0608356 	0
5 	1.04 	1 	0.59848 	-0.0607626 	0
5 	1.06 	1 	0.61299 	-0.0607139 	0
5 	1.09 	1 	0.634755 	-0.0606408 	0
5 	1.11 	1 	0.649265 	-0.0605921 	0
5 	1.14 	1 	0.669377 	-0.0603236 	0
5 	1.16 	1 	0.681683 	-0.0600142 	0
5 	1.19 	1 	0.700142 	-0.0595502 	0
5 	1.21 	1 	0.712448 	-0.0592409 	0
5 	1.23 	1 	0.724754 	-0.0589316 	0
5 	1.26 	1 	0.741483 	-0.0584014 	0
5 	1.28 	1 	0.750331 	-0.0579596 	0
5 	1.31 	1 	0.763602 	-0.057297 	0
5 	1.33 	1 	0.772449 	-0.0568552 	0
5 	1.36 	1 	0.78572 	-0.0561926 	0
5 	1.38 	1 	0.793716 	-0.0557397 	0
5 	1.4 	1 	0.799159 	-0.0552535 	0
5 	1.43 	1 	0.807324 	-0.0545242 	0
5 	1.46 	1 	0.815489 	-0.0537948 	0
5 	1.48 	1 	0.820932 	-0.0533086 	0
5 	1.5 	1 	0.826375 	-0.0528224 	0
5 	1.53 	1 	0.830925 	-0.0520473 	0
5 	1.55 	1 	0.833958 	-0.0515306 	0
5 	1.58 	1 	0.838508 	-0.0507556 	0
5 	1.6 	1 	0.841541 	-0.0502389 	0
5 	1.63 	1 	0.845706 	-0.0494545 	0
5 	1.65 	1 	0.847198 	-0.0489004 	0
5 	1.67 	1 	0.84869 	-0.0483464 	0
5 	1.7 	1 	0.850928 	-0.0475152 	0
5 	1.72 	1 	0.85242 	-0.0469612 	0
5 	1.75 	1 	0.854658 	-0.04613 	0
5 	1.77 	1 	0.855004 	-0.0455355 	0
5 	1.8 	1 	0.855523 	-0.0446436 	0
5 	1.82 	1 	0.855869 	-0.0440491 	0
5 	1.85 	1 	0.856388 	-0.0431572 	0
5 	1.87 	1 	0.856735 	-0.0425626 	0
5 	1.9 	1 	0.855847 	-0.0416137 	0
5 	1.92 	1 	0.855068 	-0.0409734 	0
5 	1.94 	1 	0.854289 	-0.0403331 	0
5 	1.97 	1 	0.85312 	-0.0393727 	0
5 	1.99 	1 	0.852341 	-0.0387324 	0
5 	2.02 	1 	0.849842 	-0.0377207 	0
5 	2.04 	1 	0.847733 	-0.037029 	0
5 	2.07 	1 	0.84457 	-0.0359916 	0
5 	2.09 	1 	0.842461 	-0.0352999 	0
5 	2.12 	1 	0.839297 	-0.0342625 	0
5 	2.14 	1 	0.83601 	-0.0335327 	0
5 	2.16 	1 	0.832329 	-0.0327903 	0
5 	2.19 	1 	0.826809 	-0.0316767 	0
5 	2.21 	1 	0.823129 	-0.0309343 	0
5 	2.24 	1 	0.817608 	-0.0298207 	0
5 	2.26 	1 	0.813081 	-0.0290582 	0
5 	2.29 	1 	0.80502 	-0.027884 	0
5 	2.31 	1 	0.799645 	-0.0271013 	0
5 	2.34 	1 	0.791584 	-0.0259272 	0
5 	2.36 	1 	0.78621 	-0.0251444 	0
5 	2.38 	1 	0.780405 	-0.0243551 	0
5 	2.41 	1 	0.76976 	-0.0231412 	0
5 	2.43 	1 	0.762663 	-0.0223319 	0
5 	2.46 	1 	0.752018 	-0.021118 	0
5 	2.48 	1 	0.744921 	-0.0203088 	0
5 	2.51 	1 	0.733352 	-0.0190896 	0
5 	2.53 	1 	0.724408 	-0.0182699 	0
5 	2.56 	1 	0.710992 	-0.0170402 	0
5 	2.58 	1 	0.702048 	-0.0162204 	0
5 	2.6 	1 	0.693103 	-0.0154007 	0
5 	2.63 	1 	0.679087 	-0.0141715 	0
5 	2.65 	1 	0.667742 	-0.0133538 	0
5 	2.68 	1 	0.650725 	-0.0121272 	0
5 	2.7 	1 	0.63938 	-0.0113095 	0
5 	2.73 	1 	0.622363 	-0.0100829 	0
5 	2.75 	1 	0.611019 	-0.00926516 	0
5 	2.78 	1 	0.586895 	-0.00811002 	0
5 	2.8 	1 	0.570813 	-0.00733993 	0
5 	2.82 	1 	0.554731 	-0.00656984 	0
5 	2.85 	1 	0.530608 	-0.0054147 	0
5 	2.87 	1 	0.514525 	-0.00464461 	0
5 	2.9 	1 	0.408404 	-0.00356167 	0
5 	2.92 	1 	0.326723 	-0.00284933 	0
5 	2.95 	1 	0.204202 	-0.00178083 	0
5 	2.96 	1 	0.163362 	-0.00142467 	0
6.02 	0.021 	1 	0.0311319 	-0.00229107 	0
6.02 	0.0359 	1 	0.0451705 	-0.00351823 	0
6.02 	0.0614 	1 	0.0691964 	-0.00561842 	0
6.02 	0.0852 	1 	0.0916206 	-0.00757858 	0
6.02 	0.111 	1 	0.112933 	-0.00951483 	0
6.02 	0.135 	1 	0.123583 	-0.0107351 	0
6.02 	0.159 	1 	0.133899 	-0.0120359 	0
6.02 	0.183 	1 	0.143953 	-0.0133959 	0
6.02 	0.208 	1 	0.154427 	-0.0148125 	0
6.02 	0.232 	1 	0.164422 	-0.0161814 	0
6.02 	0.256 	1 	0.173789 	-0.017647 	0
6.02 	0.282 	1 	0.184252 	-0.0192419 	0
6.02 	0.306 	1 	0.194202 	-0.0207251 	0
6.02 	0.33 	1 	0.204152 	-0.0222084 	0
6.02 	0.355 	1 	0.214517 	-0.0237535 	0
6.02 	0.378 	1 	0.224448 	-0.0251495 	0
6.02 	0.403 	1 	0.23554 	-0.0266366 	0
6.02 	0.428 	1 	0.247173 	-0.0280676 	0
6.02 	0.453 	1 	0.258807 	-0.0294987 	0
6.02 	0.477 	1 	0.269975 	-0.0308726 	0
6.02 	0.502 	1 	0.282137 	-0.0321881 	0
6.02 	0.525 	1 	0.293591 	-0.0333581 	0
6.02 	0.551 	1 	0.307199 	-0.0345953 	0
6.02 	0.575 	1 	0.319761 	-0.0357374 	0
6.02 	0.598 	1 	0.331799 	-0.0368318 	0
6.02 	0.623 	1 	0.345289 	-0.0379169 	0
6.02 	0.648 	1 	0.359059 	-0.0389401 	0
6.02 	0.673 	1 	0.373476 	-0.0398521 	0
6.02 	0.697 	1 	0.387317 	-0.0407276 	0
6.02 	0.721 	1 	0.401158 	-0.0416032 	0
6.02 	0.746 	1 	0.415861 	-0.0424146 	0
6.02 	0.77 	1 	0.430151 	-0.0431334 	0
6.02 	0.795 	1 	0.445601 	-0.0437351 	0
6.02 	0.819 	1 	0.460433 	-0.0443127 	0
6.02 	0.843 	1 	0.475265 	-0.0448904 	0
6.02 	0.868 	1 	0.490842 	-0.0454051 	0
6.02 	0.893 	1 	0.506547 	-0.0458339 	0
6.02 	0.917 	1 	0.521831 	-0.0461057 	0
6.02 	0.941 	1 	0.537133 	-0.046365 	0
6.02 	0.966 	1 	0.553073 	-0.046635 	0
6.02 	0.99 	1 	0.568338 	-0.0468274 	0
6.02 	1.02 	1 	0.58736 	-0.0469445 	0
6.02 	1.04 	1 	0.599758 	-0.0469028 	0
6.02 	1.06 	1 	0.612155 	-0.046861 	0
6.02 	1.09 	1 	0.630752 	-0.0467985 	0
6.02 	1.11 	1 	0.643021 	-0.0467273 	0
6.02 	1.14 	1 	0.660844 	-0.0464832 	0
6.02 	1.16 	1 	0.671995 	-0.0462568 	0
6.02 	1.19 	1 	0.688357 	-0.045887 	0
6.02 	1.21 	1 	0.699265 	-0.0456405 	0
6.02 	1.23 	1 	0.710173 	-0.045394 	0
6.02 	1.26 	1 	0.72484 	-0.044908 	0
6.02 	1.28 	1 	0.73385 	-0.0445666 	0
6.02 	1.31 	1 	0.746219 	-0.0440337 	0
6.02 	1.33 	1 	0.754465 	-0.0436785 	0
6.02 	1.36 	1 	0.766435 	-0.0431407 	0
6.02 	1.38 	1 	0.773086 	-0.0427642 	0
6.02 	1.41 	1 	0.781981 	-0.0421904 	0
6.02 	1.43 	1 	0.787196 	-0.0418058 	0
6.02 	1.46 	1 	0.795018 	-0.0412288 	0
6.02 	1.48 	1 	0.800233 	-0.0408441 	0
6.02 	1.5 	1 	0.804 	-0.0404642 	0
6.02 	1.53 	1 	0.809159 	-0.039882 	0
6.02 	1.55 	1 	0.811963 	-0.0394857 	0
6.02 	1.58 	1 	0.816169 	-0.0388914 	0
6.02 	1.6 	1 	0.818974 	-0.0384952 	0
6.02 	1.63 	1 	0.821964 	-0.0378997 	0
6.02 	1.65 	1 	0.82363 	-0.0374947 	0
6.02 	1.67 	1 	0.824831 	-0.0370741 	0
6.02 	1.7 	1 	0.826634 	-0.0364433 	0
6.02 	1.72 	1 	0.827835 	-0.0360227 	0
6.02 	1.75 	1 	0.828989 	-0.0353854 	0
6.02 	1.77 	1 	0.829527 	-0.0349555 	0
6.02 	1.8 	1 	0.829545 	-0.0342718 	0
6.02 	1.82 	1 	0.829558 	-0.0338159 	0
6.02 	1.85 	1 	0.829576 	-0.0331321 	0
6.02 	1.87 	1 	0.829166 	-0.0326684 	0
6.02 	1.89 	1 	0.828603 	-0.0322004 	0
6.02 	1.92 	1 	0.827019 	-0.0314599 	0
6.02 	1.94 	1 	0.825865 	-0.0309612 	0
6.02 	1.97 	1 	0.824134 	-0.0302132 	0
6.02 	1.99 	1 	0.822664 	-0.0297078 	0
6.02 	2.02 	1 	0.81997 	-0.0289377 	0
6.02 	2.04 	1 	0.817471 	-0.0283922 	0
6.02 	2.07 	1 	0.813722 	-0.0275739 	0
6.02 	2.09 	1 	0.811223 	-0.0270284 	0
6.02 	2.12 	1 	0.806918 	-0.0261997 	0
6.02 	2.14 	1 	0.803663 	-0.0256393 	0
6.02 	2.16 	1 	0.799831 	-0.025057 	0
6.02 	2.19 	1 	0.793797 	-0.0241729 	0
6.02 	2.21 	1 	0.789774 	-0.0235834 	0
6.02 	2.24 	1 	0.783339 	-0.0226944 	0
6.02 	2.26 	1 	0.778504 	-0.0220947 	0