0.0625 	1e-06 	1 	-3.15522e-07 	2.96664e-07 	0
0.1875 	1e-06 	1 	-6.44816e-07 	2.88334e-07 	0
0.3125 	1e-06 	1 	-1.03409e-06 	2.50613e-07 	0
0.4375 	1e-06 	1 	-1.38863e-06 	2.20534e-07 	0
0.5625 	1e-06 	1 	-1.7103e-06 	1.96757e-07 	0
0.6875 	1e-06 	1 	-2.00371e-06 	1.76978e-07 	0
0.8125 	1e-06 	1 	-2.27234e-06 	1.59994e-07 	0
0.9375 	1e-06 	1 	-2.5184e-06 	1.45022e-07 	0
1.0625 	1e-06 	1 	-2.74501e-06 	1.31341e-07 	0
1.1875 	1e-06 	1 	-2.95298e-06 	1.17903e-07 	0
1.3125 	1e-06 	1 	-3.14197e-06 	1.03866e-07 	0
1.4375 	1e-06 	1 	-3.31056e-06 	8.85842e-08 	0
1.5625 	1e-06 	1 	-3.45634e-06 	7.15882e-08 	0
1.6875 	1e-06 	1 	-3.57606e-06 	5.26227e-08 	0
1.8125 	1e-06 	1 	-3.66622e-06 	3.17523e-08 	0
1.9375 	1e-06 	1 	-3.72373e-06 	9.42298e-09 	0
2.0625 	1e-06 	1 	-3.74605e-06 	-1.33901e-08 	0
2.1875 	1e-06 	1 	-3.73122e-06 	-3.49949e-08 	0
2.3125 	1e-06 	1 	-3.68515e-06 	-5.44331e-08 	0
2.4375 	1e-06 	1 	-3.61091e-06 	-7.17806e-08 	0
2.5625 	1e-06 	1 	-3.51197e-06 	-8.728e-08 	0
2.6875 	1e-06 	1 	-3.39146e-06 	-1.01133e-07 	0
2.8125 	1e-06 	1 	-3.25219e-06 	-1.13486e-07 	0
2.9375 	1e-06 	1 	-3.09686e-06 	-1.24299e-07 	0
3.0625 	1e-06 	1 	-2.92811e-06 	-1.33595e-07 	0
3.1875 	1e-06 	1 	-2.74846e-06 	-1.41522e-07 	0
3.3125 	1e-06 	1 	-2.56013e-06 	-1.48246e-07 	0
3.4375 	1e-06 	1 	-2.3652e-06 	-1.53937e-07 	0
3.5625 	1e-06 	1 	-2.16536e-06 	-1.58847e-07 	0
3.6875 	1e-06 	1 	-1.96171e-06 	-1.63352e-07 	0
3.8125 	1e-06 	1 	-1.75538e-06 	-1.67338e-07 	0
3.9375 	1e-06 	1 	-1.54758e-06 	-1.70477e-07 	0
4.0625 	1e-06 	1 	-1.33992e-06 	-1.72904e-07 	0
4.1875 	1e-06 	1 	-1.13373e-06 	-1.74974e-07 	0
4.3125 	1e-06 	1 	-9.28606e-07 	-1.77229e-07 	0
4.4375 	1e-06 	1 	-7.25819e-07 	-1.79811e-07 	0
4.5625 	1e-06 	1 	-5.25296e-07 	-1.82475e-07 	0
4.6875 	1e-06 	1 	-3.28315e-07 	-1.85456e-07 	0
4.8125 	1e-06 	1 	-1.382e-07 	-1.88333e-07 	0
4.9375 	1e-06 	1 	5.92072e-08 	-1.85136e-07 	0
5.0625 	1e-06 	1 	2.41536e-07 	-1.74808e-07 	0
5.1875 	1e-06 	1 	4.19138e-07 	-1.63627e-07 	0
5.3125 	1e-06 	1 	5.92131e-07 	-1.53526e-07 	0
5.4375 	1e-06 	1 	7.59107e-07 	-1.44526e-07 	0
5.5625 	1e-06 	1 	9.20098e-07 	-1.36431e-07 	0
5.6875 	1e-06 	1 	1.0754e-06 	-1.29083e-07 	0
5.8125 	1e-06 	1 	1.22528e-06 	-1.2236e-07 	0
5.9375 	1e-06 	1 	1.36991e-06 	-1.16169e-07 	0
6.0625 	1e-06 	1 	1.50948e-06 	-1.10436e-07 	0
6.1875 	1e-06 	1 	1.64416e-06 	-1.051e-07 	0
6.3125 	1e-06 	1 	1.77411e-06 	-1.00118e-07 	0
6.4375 	1e-06 	1 	1.89949e-06 	-9.54517e-08 	0
6.5625 	1e-06 	1 	2.02043e-06 	-9.10709e-08 	0
6.6875 	1e-06 	1 	2.1371e-06 	-8.69502e-08 	0
6.8125 	1e-06 	1 	2.24966e-06 	-8.30686e-08 	0
6.9375 	1e-06 	1 	2.35824e-06 	-7.94077e-08 	0
7.0625 	1e-06 	1 	2.46299e-06 	-7.59515e-08 	0
7.1875 	1e-06 	1 	2.56405e-06 	-7.26859e-08 	0
7.3125 	1e-06 	1 	2.66155e-06 	-6.95981e-08 	0
7.4375 	1e-06 	1 	2.75565e-06 	-6.66765e-08 	0
7.5625 	1e-06 	1 	2.84646e-06 	-6.39107e-08 	0
7.6875 	1e-06 	1 	2.93413e-06 	-6.12909e-08 	0
7.8125 	1e-06 	1 	3.01877e-06 	-5.88083e-08 	0
7.9375 	1e-06 	1 	3.10051e-06 	-5.64547e-08 	0
8.0625 	1e-06 	1 	3.17947e-06 	-5.42224e-08 	0
8.1875 	1e-06 	1 	3.25578e-06 	-5.21042e-08 	0
8.3125 	1e-06 	1 	3.3295e-06 	-5.00934e-08 	0
8.4375 	1e-06 	1 	3.40078e-06 	-4.81838e-08 	0
8.5625 	1e-06 	1 	3.46971e-06 	-4.63698e-08 	0
8.6875 	1e-06 	1 	3.5364e-06 	-4.46456e-08 	0
8.8125 	1e-06 	1 	3.60093e-06 	-4.30061e-08 	0
8.9375 	1e-06 	1 	3.66338e-06 	-4.14467e-08 	0
9.0625 	1e-06 	1 	3.72384e-06 	-3.99627e-08 	0
9.1875 	1e-06 	1 	3.78242e-06 	-3.85499e-08 	0
9.3125 	1e-06 	1 	3.83917e-06 	-3.72043e-08 	0
9.4375 	1e-06 	1 	3.89418e-06 	-3.59221e-08 	0
9.5625 	1e-06 	1 	3.94752e-06 	-3.46998e-08 	0
9.6875 	1e-06 	1 	3.99925e-06 	-3.35342e-08 	0
9.8125 	1e-06 	1 	4.04944e-06 	-3.24221e-08 	0
9.9375 	1e-06 	1 	4.09816e-06 	-3.13605e-08 	0
10.0625 	1e-06 	1 	4.14547e-06 	-3.03466e-08 	0
10.1875 	1e-06 	1 	4.19142e-06 	-2.93779e-08 	0
10.3125 	1e-06 	1 	4.23608e-06 	-2.8452e-08 	0
10.4375 	1e-06 	1 	4.27947e-06 	-2.75666e-08 	0
10.5625 	1e-06 	1 	4.32168e-06 	-2.67194e-08 	0
10.6875 	1e-06 	1 	4.36274e-06 	-2.59086e-08 	0
10.8125 	1e-06 	1 	4.40267e-06 	-2.51322e-08 	0
10.9375 	1e-06 	1 	4.44155e-06 	-2.43883e-08 	0
11.0625 	1e-06 	1 	4.47941e-06 	-2.36755e-08 	0
11.1875 	1e-06 	1 	4.51629e-06 	-2.2992e-08 	0
11.3125 	1e-06 	1 	4.55222e-06 	-2.23363e-08 	0
11.4375 	1e-06 	1 	4.58725e-06 	-2.17074e-08 	0
11.5625 	1e-06 	1 	4.62141e-06 	-2.11035e-08 	0
11.6875 	1e-06 	1 	4.65472e-06 	-2.05238e-08 	0
11.8125 	1e-06 	1 	4.68723e-06 	-1.9967e-08 	0
11.9375 	1e-06 	1 	4.71896e-06 	-1.9432e-08 	0
12.0625 	1e-06 	1 	4.74994e-06 	-1.89179e-08 	0
12.1875 	1e-06 	1 	4.78021e-06 	-1.84237e-08 	0
12.3125 	1e-06 	1 	4.80978e-06 	-1.79486e-08 	0
12.4375 	1e-06 	1 	4.83867e-06 	-1.7492e-08 	0
12.5625 	1e-06 	1 	4.86693e-06 	-1.70528e-08 	0
12.6875 	1e-06 	1 	4.89458e-06 	-1.66306e-08 	0
12.8125 	1e-06 	1 	4.92163e-06 	-1.62248e-08 	0
12.9375 	1e-06 	1 	4.94811e-06 	-1.58347e-08 	0
13.0625 	1e-06 	1 	4.97405e-06 	-1.546e-08 	0
13.1875 	1e-06 	1 	4.99946e-06 	-1.51005e-08 	0
13.3125 	1e-06 	1 	5.02437e-06 	-1.47558e-08 	0
13.4375 	1e-06 	1 	5.04878e-06 	-1.44261e-08 	0
13.5625 	1e-06 	1 	5.07275e-06 	-1.41118e-08 	0
13.6875 	1e-06 	1 	5.09627e-06 	-1.38139e-08 	0
13.8125 	1e-06 	1 	5.11938e-06 	-1.35341e-08 	0
13.9375 	1e-06 	1 	5.14211e-06 	-1.32757e-08 	0
14.0625 	1e-06 	1 	5.16451e-06 	-1.30447e-08 	0
14.1875 	1e-06 	1 	5.18661e-06 	-1.28513e-08 	0
14.3125 	1e-06 	1 	5.20848e-06 	-1.27145e-08 	0
14.4375 	1e-06 	1 	5.23024e-06 	-1.26692e-08 	0
14.5625 	1e-06 	1 	5.25208e-06 	-1.27821e-08 	0
14.6875 	1e-06 	1 	5.2743e-06 	-1.3209e-08 	0
14.8125 	1e-06 	1 	5.29776e-06 	-1.43669e-08 	0
