/*--------------------------------*- C++ -*----------------------------------*\
| =========                 |                                                 |
| \\      /  F ield         | OpenFOAM: The Open Source CFD Toolbox           |
|  \\    /   O peration     | Version:  4.0                                   |
|   \\  /    A nd           | Web:      www.OpenFOAM.org                      |
|    \\/     M anipulation  |                                                 |
\*---------------------------------------------------------------------------*/
FoamFile
{
    version     2.0;
    format      ascii;
    class       volScalarField;
    location    "85";
    object      epsilon;
}
// * * * * * * * * * * * * * * * * * * * * * * * * * * * * * * * * * * * * * //

dimensions      [0 2 -3 0 0 0 0];

internalField   nonuniform List<scalar> 
3136
(
0.00805424
0.00760491
0.00724921
0.0069637
0.00673171
0.00654102
0.0063826
0.00624969
0.00613717
0.00604112
0.00595848
0.00588689
0.00582446
0.00576961
0.00572101
0.00569431
0.00138969
0.00161763
0.00180623
0.00195977
0.00208322
0.00218117
0.00225756
0.00231581
0.00235888
0.00238934
0.00240938
0.00242093
0.00242568
0.00242525
0.00242139
0.0024133
0.000849774
0.000849275
0.000856161
0.000868362
0.000884198
0.000902347
0.000921759
0.000941608
0.000961255
0.000980221
0.000998156
0.00101481
0.00103001
0.00104358
0.0010553
0.00106485
0.000360595
0.000376436
0.000390944
0.000404497
0.000417329
0.000429597
0.000441405
0.000452808
0.000463828
0.000474463
0.000484694
0.000494488
0.0005038
0.000512563
0.000520681
0.000528048
0.000246293
0.000244919
0.000244897
0.0002459
0.000247683
0.000250063
0.000252901
0.000256086
0.000259526
0.000263144
0.000266873
0.000270652
0.000274424
0.000278129
0.000281704
0.000285086
9.09352e-05
9.85006e-05
0.000104942
0.000110538
0.000115497
0.00011997
0.00012407
0.000127877
0.000131449
0.000134827
0.000138039
0.000141103
0.000144028
0.000146815
0.00014946
0.000151954
5.96125e-05
5.88479e-05
5.91958e-05
6.02411e-05
6.17422e-05
6.35445e-05
6.55436e-05
6.76674e-05
6.98651e-05
7.21004e-05
7.43465e-05
7.65833e-05
7.87951e-05
8.09688e-05
8.30935e-05
8.51593e-05
1.73592e-05
2.23661e-05
2.65625e-05
3.02324e-05
3.35367e-05
3.65743e-05
3.94092e-05
4.20844e-05
4.46301e-05
4.70687e-05
4.94159e-05
5.16839e-05
5.38821e-05
5.60179e-05
5.80974e-05
6.01253e-05
2.69952e-05
3.08874e-05
3.44377e-05
3.77e-05
4.07248e-05
4.35538e-05
4.62199e-05
4.87495e-05
5.11636e-05
5.34783e-05
5.57083e-05
5.78753e-05
5.9995e-05
6.20781e-05
6.41345e-05
6.61735e-05
9.49273e-05
9.41209e-05
9.3966e-05
9.42721e-05
9.49156e-05
9.58103e-05
9.68942e-05
9.81224e-05
9.94631e-05
0.000100893
0.000102397
0.000103953
0.000105565
0.000107259
0.000109039
0.000110909
0.000184818
0.000187872
0.000190425
0.000192605
0.000194511
0.000196222
0.000197802
0.000199308
0.000200783
0.000202265
0.000203786
0.000205372
0.000207034
0.000208791
0.000210706
0.000212804
0.000402233
0.000393486
0.000386312
0.000380589
0.000376163
0.000372902
0.000370701
0.000369464
0.000369106
0.000369549
0.000370725
0.000372571
0.000375031
0.000378022
0.000381478
0.000385465
0.00044983
0.000465257
0.000480296
0.000495277
0.000510349
0.000525604
0.000541078
0.000556752
0.000572574
0.000588476
0.000604385
0.000620227
0.000635931
0.000651436
0.000666658
0.000681441
0.000921526
0.000938208
0.00096563
0.00100056
0.0010403
0.00108274
0.00112612
0.00116905
0.00121046
0.0012496
0.001286
0.00131936
0.00134956
0.00137661
0.00140058
0.00142165
0.00173833
0.00207935
0.00237546
0.00261959
0.00281437
0.00296544
0.00307859
0.00315941
0.00321321
0.00324486
0.00325865
0.00325824
0.00324671
0.00322666
0.00320019
0.00316906
0.00664758
0.00620668
0.00590907
0.00571221
0.00558427
0.00550233
0.00545067
0.00541864
0.005399
0.00538675
0.00537853
0.00537203
0.00536574
0.00535866
0.00535015
0.00533982
0.000166286
0.000310862
0.000484631
0.000678435
0.000895062
0.00113782
0.00141012
0.001716
0.00204706
0.00239867
0.00276639
0.00314506
0.00352914
0.00391307
0.00429196
0.00466254
0.00502503
0.00538661
0.00571016
0.00598802
0.00622005
0.00640705
0.0065502
0.0066507
0.0067111
0.00673484
0.0067257
0.00668748
0.00662405
0.00653913
0.00643461
0.00631258
0.00617612
0.00602827
0.00587244
0.00571321
0.00555155
0.00539209
0.00524313
0.0051155
0.00503192
0.00496136
0.00489419
0.00482807
0.00476244
0.0046973
0.0046327
0.00456877
0.00450558
0.00444323
0.0043818
0.00432137
0.004262
0.00420374
0.00414664
0.00409073
0.00403605
0.0039826
0.00393039
0.00387943
0.00382972
0.00378125
0.00373401
0.00368797
0.00364313
0.00359946
0.00355693
0.00351553
0.00347522
0.00343598
0.00339779
0.0033606
0.0033244
0.00328916
0.00325485
0.00322144
0.0031889
0.0031572
0.00312633
0.00309625
0.00306694
0.00303837
0.00301052
0.00298338
0.0029569
0.00293108
0.00290589
0.00288131
0.00285733
0.00283392
0.00281106
0.00278875
0.00276696
0.00274567
0.00272488
0.00270456
0.00268471
0.00266531
0.00264634
0.0026278
0.00260968
0.00259196
0.00257463
0.00255768
0.00254111
0.00252491
0.00250906
0.00249356
0.00247841
0.0024636
0.00244912
0.00243498
0.00242117
0.00240771
0.00239461
0.00238191
0.00236967
0.00235805
0.00234744
0.00233896
0.000202918
0.000255492
0.0003736
0.000505287
0.000654332
0.000822611
0.00101047
0.00121673
0.00143835
0.00167207
0.00191434
0.00216158
0.00241052
0.0026587
0.0029046
0.0031476
0.00338749
0.00362269
0.00383857
0.00402947
0.00419376
0.00433117
0.00444203
0.00452658
0.00458624
0.00462279
0.0046383
0.0046349
0.00461453
0.00457911
0.00452986
0.00446909
0.00439858
0.00431998
0.00423174
0.00413922
0.00404471
0.00394932
0.00385595
0.00376468
0.00368063
0.00359983
0.00352076
0.00344329
0.00336746
0.00329336
0.00322104
0.00315053
0.00308186
0.00301505
0.00295009
0.00288699
0.00282574
0.00276631
0.00270869
0.00265284
0.00259873
0.00254632
0.00249557
0.00244645
0.0023989
0.00235288
0.00230834
0.00226525
0.00222354
0.00218317
0.00214411
0.00210629
0.00206969
0.00203424
0.00199992
0.00196668
0.00193448
0.00190328
0.00187305
0.00184374
0.00181532
0.00178777
0.00176103
0.00173509
0.00170992
0.00168548
0.00166175
0.0016387
0.00161631
0.00159455
0.00157339
0.00155283
0.00153282
0.00151336
0.00149443
0.00147599
0.00145805
0.00144058
0.00142356
0.00140698
0.00139082
0.00137507
0.00135971
0.00134474
0.00133014
0.00131589
0.00130199
0.00128842
0.00127518
0.00126224
0.00124962
0.00123729
0.00122524
0.00121347
0.00120196
0.00119071
0.00117971
0.00116894
0.00115838
0.00114802
0.00113781
0.00112768
0.00111768
0.00110839
0.000226503
0.000226134
0.000322494
0.000437917
0.000575009
0.000736179
0.000922473
0.00113352
0.00136753
0.00162179
0.00189287
0.00217743
0.00247238
0.00277548
0.00308525
0.00339982
0.00371377
0.00401161
0.00428321
0.00452258
0.00472767
0.00489835
0.00503564
0.00513859
0.0052101
0.00525288
0.00526976
0.00526356
0.00523697
0.00519061
0.00512874
0.00505448
0.00496974
0.00487651
0.00477548
0.00466981
0.00456104
0.00445041
0.00433961
0.00422969
0.00412203
0.00401635
0.00391247
0.00381056
0.00371083
0.00361346
0.00351859
0.00342632
0.00333672
0.00324982
0.00316563
0.00308412
0.00300528
0.00292906
0.00285541
0.00278428
0.0027156
0.00264929
0.00258531
0.00252356
0.00246398
0.00240649
0.00235102
0.0022975
0.00224585
0.002196
0.00214789
0.00210145
0.0020566
0.0020133
0.00197147
0.00193105
0.001892
0.00185425
0.00181775
0.00178246
0.00174831
0.00171528
0.0016833
0.00165234
0.00162236
0.00159331
0.00156517
0.00153788
0.00151143
0.00148578
0.00146089
0.00143674
0.00141329
0.00139053
0.00136841
0.00134693
0.00132605
0.00130576
0.00128602
0.00126683
0.00124815
0.00122998
0.00121229
0.00119507
0.00117829
0.00116195
0.00114602
0.0011305
0.00111537
0.00110061
0.00108622
0.00107218
0.00105848
0.0010451
0.00103204
0.00101927
0.0010068
0.000994601
0.000982655
0.000970941
0.000959426
0.000948086
0.000937036
0.000927206
0.00023566
0.00019556
0.00027236
0.000374637
0.000504434
0.000665923
0.000862308
0.00109517
0.00136419
0.00166739
0.0019999
0.00235774
0.00273679
0.0031342
0.00354692
0.00396977
0.0043814
0.00476163
0.00510108
0.00539448
0.00564052
0.00584042
0.00599756
0.00610863
0.00618019
0.00621662
0.0062219
0.00619982
0.00615413
0.00608741
0.00600419
0.0059072
0.00579898
0.00568203
0.00555829
0.00542967
0.00529756
0.00516341
0.00502875
0.0048948
0.00476236
0.0046317
0.0045031
0.0043769
0.00425341
0.00413291
0.0040156
0.00390163
0.00379109
0.00368402
0.00358043
0.0034803
0.0033836
0.00329025
0.00320019
0.00311334
0.00302961
0.0029489
0.00287112
0.00279617
0.00272395
0.00265436
0.00258731
0.00252269
0.00246042
0.00240039
0.00234253
0.00228673
0.00223293
0.00218103
0.00213096
0.00208264
0.002036
0.00199097
0.00194749
0.00190547
0.00186488
0.00182564
0.00178771
0.00175102
0.00171553
0.00168118
0.00164793
0.00161574
0.00158456
0.00155435
0.00152507
0.00149669
0.00146916
0.00144246
0.00141655
0.0013914
0.00136699
0.00134328
0.00132024
0.00129786
0.0012761
0.00125494
0.00123437
0.00121435
0.00119487
0.00117591
0.00115745
0.00113948
0.00112196
0.0011049
0.00108826
0.00107205
0.00105623
0.0010408
0.00102575
0.00101105
0.000996694
0.000982666
0.000968947
0.000955516
0.000942356
0.000929468
0.000917026
0.000906209
0.000235007
0.000168493
0.000231168
0.000327526
0.000460486
0.000637124
0.000863428
0.00114282
0.00147606
0.00186462
0.00229418
0.00275932
0.00325307
0.00377198
0.00430322
0.004824
0.005298
0.00572091
0.00608615
0.00639168
0.00663843
0.00682946
0.00696842
0.00706016
0.00710916
0.00712035
0.00709853
0.0070483
0.00697415
0.00688
0.0067695
0.00664561
0.00651111
0.00636867
0.00622052
0.00606846
0.00591387
0.00575813
0.00560256
0.00544827
0.00529595
0.00514603
0.00499882
0.00485466
0.00471383
0.00457659
0.00444311
0.00431354
0.00418795
0.00406637
0.00394881
0.00383523
0.00372557
0.00361975
0.0035177
0.00341931
0.00332447
0.00323308
0.00314502
0.00306018
0.00297843
0.00289968
0.00282379
0.00275067
0.00268021
0.00261229
0.00254682
0.0024837
0.00242283
0.00236412
0.00230747
0.00225281
0.00220006
0.00214912
0.00209993
0.00205242
0.00200651
0.00196214
0.00191924
0.00187776
0.00183763
0.0017988
0.00176122
0.00172484
0.0016896
0.00165547
0.00162239
0.00159033
0.00155925
0.0015291
0.00149985
0.00147146
0.00144391
0.00141715
0.00139116
0.00136591
0.00134138
0.00131752
0.00129433
0.00127177
0.00124982
0.00122846
0.00120767
0.00118742
0.0011677
0.00114849
0.00112977
0.00111152
0.00109372
0.00107637
0.00105943
0.00104291
0.00102678
0.00101102
0.00099562
0.000980564
0.000965841
0.000951472
0.000937657
0.000925757
0.00023302
0.000165523
0.000251864
0.000388899
0.0005817
0.000839343
0.00116711
0.00156504
0.00202919
0.00255647
0.00313156
0.00373342
0.00434736
0.00496535
0.00553385
0.00602657
0.00645235
0.00681189
0.00710651
0.00733887
0.00751278
0.00763311
0.00770518
0.00773446
0.00772588
0.00768444
0.00761494
0.00752188
0.00740952
0.00728162
0.00714139
0.00699149
0.00683434
0.00667214
0.00650679
0.00633981
0.00617239
0.00600559
0.00584037
0.00567753
0.00551761
0.00536094
0.00520777
0.0050583
0.00491269
0.00477108
0.00463354
0.00450015
0.00437091
0.00424583
0.00412487
0.00400796
0.00389504
0.00378602
0.00368079
0.00357926
0.00348131
0.00338682
0.00329569
0.00320778
0.003123
0.00304122
0.00296233
0.00288623
0.0028128
0.00274194
0.00267356
0.00260754
0.0025438
0.00248226
0.00242281
0.00236537
0.00230988
0.00225624
0.00220438
0.00215423
0.00210573
0.0020588
0.00201339
0.00196943
0.00192687
0.00188564
0.00184571
0.00180701
0.00176951
0.00173314
0.00169787
0.00166366
0.00163047
0.00159825
0.00156697
0.00153659
0.00150708
0.00147841
0.00145055
0.00142346
0.00139712
0.0013715
0.00134657
0.00132231
0.0012987
0.00127571
0.00125331
0.0012315
0.00121024
0.00118953
0.00116933
0.00114963
0.00113042
0.00111167
0.00109338
0.00107552
0.00105808
0.00104105
0.00102441
0.00100815
0.000992266
0.000976786
0.000961921
0.000949133
0.00025573
0.000396645
0.000740478
0.00115267
0.00162238
0.00215079
0.00273186
0.00335228
0.0039986
0.00467397
0.0053398
0.00595051
0.00647816
0.00689007
0.00721058
0.00745899
0.00764721
0.00778324
0.00787319
0.00792201
0.00793407
0.00791357
0.00786462
0.00779107
0.0076964
0.00758388
0.00745665
0.0073176
0.00716941
0.00701445
0.00685472
0.00669187
0.00652733
0.00636236
0.00619801
0.00603514
0.0058744
0.00571634
0.0055614
0.00540994
0.0052622
0.00511829
0.00497828
0.00484217
0.00470997
0.00458166
0.0044572
0.00433656
0.00421967
0.00410648
0.0039969
0.00389085
0.00378825
0.003689
0.003593
0.00350016
0.00341038
0.00332355
0.00323957
0.00315836
0.0030798
0.00300382
0.00293031
0.00285919
0.00279037
0.00272377
0.0026593
0.00259689
0.00253647
0.00247795
0.00242127
0.00236637
0.00231317
0.00226161
0.00221164
0.00216319
0.00211621
0.00207064
0.00202643
0.00198354
0.00194192
0.00190151
0.00186228
0.00182418
0.00178718
0.00175123
0.00171629
0.00168233
0.00164932
0.00161721
0.00158599
0.00155561
0.00152606
0.00149729
0.00146928
0.00144201
0.00141545
0.00138958
0.00136437
0.0013398
0.00131585
0.0012925
0.00126972
0.00124751
0.00122584
0.00120468
0.00118404
0.00116388
0.0011442
0.00112498
0.0011062
0.00108785
0.00106992
0.00105239
0.00103526
0.00101852
0.00100216
0.00098622
0.000970901
0.000957678
0.000811983
0.00319569
0.00492893
0.00615515
0.00701999
0.00763436
0.00806891
0.00837036
0.00857117
0.00866679
0.00867094
0.00861123
0.00850619
0.00837511
0.00822902
0.00807562
0.00791916
0.00776168
0.00760401
0.00744632
0.0072885
0.00713049
0.00697236
0.00681425
0.0066564
0.00649913
0.00634283
0.00618796
0.006035
0.00588441
0.00573657
0.00559179
0.0054503
0.00531231
0.00517796
0.00504734
0.00492049
0.00479742
0.00467811
0.00456252
0.00445056
0.00434214
0.00423712
0.00413537
0.00403676
0.00394115
0.00384843
0.00375849
0.0036712
0.00358649
0.00350423
0.00342436
0.00334677
0.00327139
0.00319815
0.00312695
0.00305774
0.00299045
0.00292501
0.00286137
0.00279945
0.00273921
0.0026806
0.00262356
0.00256804
0.002514
0.00246139
0.00241016
0.00236028
0.00231171
0.00226441
0.00221833
0.00217345
0.00212972
0.00208712
0.00204561
0.00200516
0.00196574
0.00192731
0.00188985
0.00185334
0.00181774
0.00178302
0.00174916
0.00171614
0.00168393
0.00165251
0.00162185
0.00159193
0.00156273
0.00153424
0.00150642
0.00147925
0.00145273
0.00142683
0.00140153
0.00137682
0.00135267
0.00132908
0.00130602
0.00128348
0.00126145
0.00123991
0.00121884
0.00119824
0.00117808
0.00115836
0.00113907
0.00112019
0.00110171
0.00108363
0.00106592
0.00104859
0.00103162
0.00101501
0.000998751
0.000982852
0.000967342
0.000952398
0.000939414
0.00605274
0.00642194
0.00667059
0.00682306
0.00690921
0.00694491
0.00693963
0.0069002
0.00683139
0.00673882
0.00662702
0.00649865
0.00635628
0.00620331
0.00604334
0.0058799
0.00571598
0.00555389
0.00539534
0.0052415
0.00509312
0.00495061
0.00481416
0.00468375
0.00455927
0.0044405
0.00432721
0.00421916
0.00411611
0.00401783
0.00392408
0.00383465
0.00374929
0.00366779
0.00358993
0.0035155
0.00344429
0.0033761
0.00331073
0.00324799
0.0031877
0.00312967
0.00307373
0.00301971
0.00296744
0.00291677
0.00286756
0.0028197
0.00277307
0.00272757
0.00268311
0.00263962
0.00259701
0.00255524
0.00251424
0.00247397
0.0024344
0.00239548
0.00235719
0.00231949
0.00228238
0.00224583
0.00220983
0.00217436
0.00213942
0.00210499
0.00207107
0.00203765
0.00200472
0.00197229
0.00194035
0.00190889
0.00187792
0.00184742
0.0018174
0.00178785
0.00175877
0.00173016
0.00170201
0.00167433
0.0016471
0.00162032
0.00159398
0.0015681
0.00154265
0.00151764
0.00149305
0.00146889
0.00144515
0.00142182
0.0013989
0.00137638
0.00135426
0.00133253
0.00131118
0.00129021
0.00126961
0.00124938
0.0012295
0.00120998
0.00119081
0.00117197
0.00115347
0.0011353
0.00111745
0.00109992
0.00108269
0.00106577
0.00104915
0.00103282
0.00101679
0.00100103
0.00098556
0.000970365
0.000955447
0.000940807
0.000926453
0.000912411
0.000898828
0.000886915
0.00241713
0.00243379
0.00245666
0.0024837
0.00251438
0.00254738
0.00258088
0.00261303
0.00264196
0.002666
0.0026837
0.00269402
0.00269636
0.00269062
0.00267709
0.00265644
0.00262954
0.00259741
0.00256112
0.00252169
0.00248011
0.00243725
0.00239386
0.00235059
0.00230796
0.00226636
0.00222611
0.00218743
0.00215048
0.00211535
0.00208211
0.00205076
0.0020213
0.00199367
0.00196782
0.00194367
0.00192114
0.00190014
0.00188056
0.00186231
0.00184527
0.00182933
0.00181438
0.00180032
0.00178703
0.00177439
0.00176233
0.00175072
0.00173949
0.00172855
0.00171781
0.00170721
0.00169668
0.00168616
0.00167561
0.00166497
0.0016542
0.00164327
0.00163216
0.00162085
0.0016093
0.00159752
0.0015855
0.00157322
0.0015607
0.00154793
0.00153491
0.00152166
0.00150818
0.00149448
0.00148057
0.00146648
0.00145221
0.00143777
0.00142319
0.00140848
0.00139365
0.00137871
0.00136369
0.0013486
0.00133345
0.00131826
0.00130304
0.00128781
0.00127257
0.00125734
0.00124213
0.00122695
0.00121182
0.00119673
0.00118171
0.00116675
0.00115188
0.00113708
0.00112238
0.00110777
0.00109327
0.00107888
0.0010646
0.00105043
0.00103639
0.00102248
0.00100869
0.000995032
0.000981509
0.000968123
0.000954876
0.000941769
0.000928804
0.000915983
0.000903308
0.000890781
0.000878405
0.000866182
0.000854117
0.000842216
0.000830489
0.000818959
0.000807738
0.000797772
0.00107273
0.00107945
0.00108521
0.00109028
0.00109489
0.00109913
0.00110296
0.00110625
0.00110883
0.00111051
0.0011111
0.00111041
0.00110833
0.00110478
0.00109976
0.00109332
0.00108556
0.00107663
0.00106668
0.0010559
0.00104448
0.00103262
0.0010205
0.0010083
0.000996192
0.000984313
0.000972798
0.000961759
0.000951291
0.000941474
0.00093237
0.000924028
0.000916483
0.000909758
0.000903866
0.000898811
0.000894589
0.000891188
0.00088859
0.000886771
0.000885703
0.000885352
0.00088568
0.000886645
0.000888203
0.000890306
0.000892905
0.000895948
0.000899382
0.000903153
0.000907208
0.000911492
0.000915951
0.000920531
0.00092518
0.000929846
0.000934481
0.000939037
0.000943469
0.000947735
0.000951796
0.000955615
0.00095916
0.000962401
0.000965311
0.000967868
0.000970052
0.000971847
0.000973241
0.000974222
0.000974785
0.000974925
0.000974641
0.000973933
0.000972805
0.000971262
0.00096931
0.000966959
0.000964216
0.000961094
0.000957605
0.000953761
0.000949575
0.000945061
0.000940235
0.00093511
0.000929701
0.000924023
0.00091809
0.000911918
0.000905522
0.000898914
0.00089211
0.000885123
0.000877966
0.000870653
0.000863196
0.000855607
0.000847899
0.000840082
0.000832167
0.000824165
0.000816086
0.000807939
0.000799734
0.00079148
0.000783185
0.000774857
0.000766504
0.000758134
0.000749754
0.000741372
0.000732995
0.000724631
0.00071629
0.000707979
0.000699712
0.000691508
0.000683443
0.000676162
0.000534601
0.000540308
0.000545126
0.000549015
0.000551973
0.000554014
0.000555147
0.000555382
0.000554735
0.000553225
0.00055088
0.000547736
0.000543845
0.00053927
0.000534088
0.000528385
0.000522253
0.000515787
0.000509078
0.000502215
0.000495282
0.000488357
0.00048151
0.000474806
0.000468301
0.000462045
0.000456081
0.000450445
0.000445169
0.000440278
0.000435792
0.000431728
0.000428097
0.00042491
0.000422171
0.000419884
0.000418051
0.00041667
0.00041574
0.000415256
0.000415213
0.000415607
0.000416428
0.00041767
0.000419323
0.000421377
0.000423821
0.000426644
0.000429833
0.000433373
0.000437251
0.00044145
0.000445954
0.000450743
0.000455798
0.0004611
0.000466624
0.00047235
0.000478253
0.000484307
0.000490486
0.000496765
0.000503116
0.000509512
0.000515925
0.000522327
0.000528691
0.000534991
0.000541199
0.000547291
0.000553243
0.00055903
0.000564631
0.000570026
0.000575196
0.000580124
0.000584793
0.000589192
0.000593306
0.000597127
0.000600646
0.000603856
0.000606752
0.000609331
0.00061159
0.000613529
0.000615149
0.000616451
0.000617439
0.000618118
0.000618491
0.000618565
0.000618347
0.000617843
0.000617062
0.000616012
0.000614701
0.000613139
0.000611334
0.000609297
0.000607036
0.000604561
0.000601881
0.000599007
0.000595948
0.000592714
0.000589313
0.000585756
0.000582051
0.000578208
0.000574235
0.000570143
0.000565939
0.000561634
0.000557237
0.000552758
0.000548209
0.000543604
0.000538989
0.000534721
0.000288215
0.000291041
0.000293517
0.0002956
0.00029726
0.000298476
0.000299232
0.000299513
0.000299315
0.000298638
0.000297493
0.0002959
0.000293889
0.000291497
0.000288772
0.000285762
0.000282524
0.00027911
0.000275575
0.000271968
0.000268338
0.000264726
0.000261172
0.000257709
0.000254367
0.00025117
0.000248137
0.000245286
0.000242629
0.000240176
0.000237932
0.000235903
0.000234089
0.000232492
0.000231111
0.000229943
0.000228985
0.000228235
0.000227689
0.000227342
0.000227191
0.000227232
0.000227461
0.000227875
0.00022847
0.000229244
0.000230195
0.000231319
0.000232616
0.000234084
0.00023572
0.000237525
0.000239496
0.000241633
0.000243934
0.000246397
0.000249022
0.000251806
0.000254745
0.000257839
0.000261082
0.00026447
0.000268
0.000271664
0.000275457
0.000279371
0.000283399
0.000287531
0.000291758
0.000296069
0.000300454
0.0003049
0.000309395
0.000313926
0.00031848
0.000323043
0.000327601
0.000332139
0.000336645
0.000341103
0.0003455
0.000349822
0.000354056
0.00035819
0.000362211
0.000366108
0.000369871
0.000373489
0.000376953
0.000380256
0.000383389
0.000386346
0.000389121
0.000391711
0.00039411
0.000396316
0.000398327
0.000400142
0.000401759
0.00040318
0.000404403
0.000405432
0.000406268
0.000406913
0.000407371
0.000407645
0.000407738
0.000407656
0.000407402
0.000406981
0.000406399
0.00040566
0.000404771
0.000403738
0.000402567
0.000401264
0.000399836
0.000398292
0.000396654
0.000395055
0.000154286
0.000156443
0.000158413
0.000160185
0.000161746
0.000163091
0.000164211
0.000165102
0.000165764
0.000166197
0.000166409
0.000166409
0.000166213
0.00016584
0.00016531
0.00016465
0.000163885
0.000163042
0.000162145
0.00016122
0.000160289
0.000159375
0.000158495
0.000157665
0.0001569
0.000156209
0.000155602
0.000155086
0.000154663
0.000154336
0.000154106
0.000153972
0.000153931
0.00015398
0.000154116
0.000154334
0.000154629
0.000154997
0.000155432
0.000155928
0.000156483
0.00015709
0.000157747
0.000158448
0.000159192
0.000159975
0.000160795
0.000161651
0.000162541
0.000163465
0.000164422
0.000165414
0.000166439
0.0001675
0.000168597
0.000169733
0.000170909
0.000172126
0.000173388
0.000174697
0.000176054
0.000177462
0.000178923
0.000180439
0.000182013
0.000183646
0.00018534
0.000187096
0.000188915
0.000190798
0.000192744
0.000194754
0.000196828
0.000198963
0.000201159
0.000203413
0.000205724
0.000208086
0.000210499
0.000212956
0.000215454
0.000217987
0.000220551
0.000223139
0.000225746
0.000228365
0.000230989
0.000233612
0.000236227
0.000238827
0.000241404
0.000243952
0.000246464
0.000248932
0.000251351
0.000253714
0.000256015
0.000258248
0.000260408
0.000262488
0.000264486
0.000266396
0.000268214
0.000269937
0.000271562
0.000273086
0.000274507
0.000275823
0.000277033
0.000278135
0.00027913
0.000280017
0.000280795
0.000281467
0.000282031
0.00028249
0.000282845
0.000283098
0.000283254
0.000283318
8.71579e-05
8.90822e-05
9.0926e-05
9.26843e-05
9.43534e-05
9.59309e-05
9.74155e-05
9.88075e-05
0.000100108
0.000101322
0.000102453
0.00010351
0.0001045
0.000105436
0.000106327
0.000107188
0.00010803
0.000108867
0.000109711
0.000110573
0.000111464
0.000112393
0.000113368
0.000114393
0.000115474
0.000116613
0.00011781
0.000119065
0.000120377
0.000121741
0.000123153
0.000124608
0.0001261
0.000127622
0.000129167
0.000130728
0.000132298
0.000133869
0.000135435
0.000136988
0.000138524
0.000140035
0.000141519
0.000142968
0.000144382
0.000145755
0.000147085
0.000148372
0.000149613
0.000150809
0.000151958
0.000153062
0.000154122
0.000155139
0.000156114
0.00015705
0.000157949
0.000158814
0.000159648
0.000160453
0.000161233
0.000161992
0.000162731
0.000163456
0.000164169
0.000164874
0.000165574
0.000166272
0.000166972
0.000167678
0.000168391
0.000169115
0.000169853
0.000170607
0.00017138
0.000172175
0.000172992
0.000173834
0.000174703
0.000175599
0.000176524
0.000177478
0.000178462
0.000179476
0.00018052
0.000181594
0.000182696
0.000183826
0.000184982
0.000186164
0.000187368
0.000188593
0.000189836
0.000191095
0.000192368
0.000193651
0.000194941
0.000196235
0.000197529
0.000198821
0.000200107
0.000201383
0.000202646
0.000203892
0.000205118
0.000206322
0.000207499
0.000208646
0.000209761
0.000210841
0.000211882
0.000212883
0.000213842
0.000214755
0.000215622
0.00021644
0.000217208
0.000217925
0.000218589
0.000219162
6.21062e-05
6.4044e-05
6.59427e-05
6.78063e-05
6.9639e-05
7.14455e-05
7.32309e-05
7.5001e-05
7.6762e-05
7.85209e-05
8.02857e-05
8.20645e-05
8.38663e-05
8.57002e-05
8.75754e-05
8.95007e-05
9.14846e-05
9.35348e-05
9.56578e-05
9.78589e-05
0.000100142
0.00010251
0.000104962
0.000107498
0.000110116
0.000112809
0.000115574
0.000118401
0.000121282
0.000124206
0.000127164
0.000130144
0.000133133
0.000136119
0.00013909
0.000142035
0.000144941
0.000147798
0.000150595
0.000153323
0.000155975
0.000158541
0.000161016
0.000163395
0.000165673
0.000167847
0.000169915
0.000171876
0.000173729
0.000175474
0.000177113
0.000178647
0.000180078
0.00018141
0.000182646
0.000183788
0.000184842
0.00018581
0.000186698
0.00018751
0.00018825
0.000188922
0.000189532
0.000190083
0.00019058
0.000191028
0.000191431
0.000191793
0.000192118
0.00019241
0.000192674
0.000192912
0.000193128
0.000193326
0.000193509
0.00019368
0.000193842
0.000193999
0.000194151
0.000194303
0.000194457
0.000194614
0.000194776
0.000194946
0.000195125
0.000195314
0.000195516
0.00019573
0.000195958
0.000196201
0.00019646
0.000196734
0.000197024
0.00019733
0.000197652
0.000197989
0.000198342
0.00019871
0.000199091
0.000199485
0.000199892
0.000200309
0.000200736
0.000201171
0.000201613
0.000202061
0.000202512
0.000202965
0.000203418
0.00020387
0.000204319
0.000204763
0.0002052
0.00020563
0.00020605
0.00020646
0.000206857
0.000207243
0.000207615
0.000207939
6.82044e-05
7.02365e-05
7.22791e-05
7.43416e-05
7.64336e-05
7.85651e-05
8.07463e-05
8.29877e-05
8.53003e-05
8.76952e-05
9.01834e-05
9.27761e-05
9.54839e-05
9.83169e-05
0.000101284
0.000104393
0.000107651
0.000111061
0.000114626
0.000118346
0.000122218
0.000126238
0.000130398
0.000134689
0.000139098
0.000143611
0.000148212
0.000152883
0.000157605
0.000162358
0.000167122
0.000171874
0.000176597
0.000181268
0.000185868
0.00019038
0.000194787
0.000199073
0.000203225
0.000207231
0.00021108
0.000214764
0.000218278
0.000221615
0.000224773
0.000227751
0.000230548
0.000233165
0.000235605
0.000237871
0.000239967
0.000241899
0.000243671
0.00024529
0.000246762
0.000248095
0.000249294
0.000250367
0.000251321
0.000252163
0.0002529
0.000253538
0.000254085
0.000254547
0.00025493
0.00025524
0.000255483
0.000255664
0.000255789
0.000255862
0.000255889
0.000255874
0.00025582
0.000255732
0.000255613
0.000255468
0.000255298
0.000255107
0.000254899
0.000254674
0.000254436
0.000254187
0.000253929
0.000253663
0.000253391
0.000253115
0.000252836
0.000252555
0.000252273
0.000251991
0.00025171
0.00025143
0.000251152
0.000250877
0.000250604
0.000250334
0.000250068
0.000249804
0.000249544
0.000249287
0.000249032
0.000248781
0.000248532
0.000248284
0.000248039
0.000247794
0.00024755
0.000247307
0.000247062
0.000246817
0.000246571
0.000246322
0.000246071
0.000245817
0.000245561
0.000245303
0.000245043
0.000244782
0.000244523
0.000244256
0.000112877
0.00011495
0.000117138
0.000119453
0.000121907
0.000124513
0.000127283
0.000130232
0.000133375
0.000136723
0.000140291
0.000144091
0.000148132
0.000152423
0.000156971
0.000161778
0.000166845
0.000172167
0.000177736
0.000183543
0.000189571
0.000195801
0.000202212
0.000208778
0.000215471
0.00022226
0.000229113
0.000235998
0.000242881
0.000249728
0.000256506
0.000263185
0.000269734
0.000276126
0.000282335
0.00028834
0.000294119
0.000299657
0.000304941
0.000309958
0.000314702
0.000319169
0.000323354
0.000327259
0.000330885
0.000334236
0.00033732
0.000340141
0.00034271
0.000345036
0.000347128
0.000348997
0.000350656
0.000352114
0.000353383
0.000354476
0.000355403
0.000356176
0.000356804
0.0003573
0.000357672
0.000357931
0.000358085
0.000358144
0.000358115
0.000358007
0.000357826
0.000357579
0.000357272
0.000356912
0.000356502
0.000356049
0.000355557
0.00035503
0.00035447
0.000353883
0.00035327
0.000352635
0.000351979
0.000351306
0.000350615
0.000349911
0.000349192
0.000348462
0.00034772
0.000346968
0.000346207
0.000345435
0.000344656
0.000343867
0.00034307
0.000342265
0.000341452
0.000340631
0.000339801
0.000338964
0.000338118
0.000337264
0.000336401
0.000335528
0.000334646
0.000333754
0.000332852
0.000331939
0.000331016
0.000330081
0.000329135
0.000328177
0.000327207
0.000326224
0.000325228
0.000324219
0.000323198
0.000322166
0.000321123
0.00032007
0.00031901
0.000317947
0.000316884
0.000315846
0.000215103
0.000217627
0.000220393
0.000223423
0.000226734
0.000230346
0.000234276
0.00023854
0.000243152
0.000248124
0.000253467
0.000259185
0.000265283
0.000271757
0.000278601
0.000285803
0.000293345
0.000301204
0.000309352
0.000317754
0.000326374
0.000335168
0.000344092
0.000353098
0.000362137
0.000371159
0.000380115
0.000388957
0.000397639
0.000406116
0.00041435
0.000422303
0.000429944
0.000437244
0.000444182
0.000450738
0.000456898
0.000462653
0.000467998
0.000472931
0.000477455
0.000481575
0.0004853
0.00048864
0.000491608
0.000494218
0.000496488
0.000498433
0.00050007
0.000501419
0.000502498
0.000503324
0.000503915
0.000504289
0.000504464
0.000504454
0.000504277
0.000503946
0.000503476
0.00050288
0.000502171
0.000501359
0.000500456
0.000499471
0.000498413
0.000497291
0.000496111
0.00049488
0.000493605
0.000492291
0.000490941
0.000489562
0.000488155
0.000486725
0.000485273
0.000483803
0.000482316
0.000480814
0.000479298
0.000477769
0.000476228
0.000474676
0.000473113
0.000471539
0.000469955
0.00046836
0.000466755
0.00046514
0.000463514
0.000461878
0.000460231
0.000458573
0.000456905
0.000455225
0.000453536
0.000451834
0.000450121
0.000448395
0.000446654
0.000444898
0.000443126
0.000441335
0.000439531
0.000437711
0.000435873
0.000434016
0.000432139
0.00043024
0.000428319
0.000426376
0.000424412
0.000422428
0.000420423
0.000418401
0.000416363
0.000414311
0.000412249
0.000410181
0.000408116
0.000406127
0.000389952
0.000394924
0.000400366
0.000406262
0.000412602
0.000419376
0.000426574
0.000434188
0.000442208
0.000450622
0.000459415
0.000468569
0.000478062
0.000487867
0.00049795
0.000508276
0.000518799
0.000529473