/*--------------------------------*- C++ -*----------------------------------*\
| =========                 |                                                 |
| \\      /  F ield         | OpenFOAM: The Open Source CFD Toolbox           |
|  \\    /   O peration     | Version:  4.0                                   |
|   \\  /    A nd           | Web:      www.OpenFOAM.org                      |
|    \\/     M anipulation  |                                                 |
\*---------------------------------------------------------------------------*/
FoamFile
{
    version     2.0;
    format      ascii;
    class       volScalarField;
    location    "85";
    object      k;
}
// * * * * * * * * * * * * * * * * * * * * * * * * * * * * * * * * * * * * * //

dimensions      [0 2 -2 0 0 0 0];

internalField   nonuniform List<scalar> 
3136
(
0.0116414
0.0112043
0.0108521
0.0105653
0.0103293
0.0101333
0.00996903
0.00983016
0.00971181
0.00961021
0.00952237
0.00944595
0.00937905
0.00932007
0.00926766
0.0092388
0.00850266
0.00894967
0.00928711
0.00953454
0.00971058
0.00983028
0.00990528
0.00994477
0.0099562
0.00994558
0.00991783
0.00987702
0.00982667
0.00977014
0.0097112
0.00964683
0.00636053
0.0064197
0.00649443
0.00657803
0.00666545
0.00675306
0.00683819
0.00691892
0.00699395
0.00706245
0.00712396
0.00717828
0.00722533
0.00726499
0.00729657
0.00731916
0.00530044
0.00534456
0.00538727
0.00542949
0.00547139
0.00551296
0.00555407
0.00559447
0.00563385
0.00567188
0.00570823
0.00574256
0.00577449
0.00580356
0.00582916
0.00585068
0.00431471
0.00434703
0.0043813
0.0044163
0.00445115
0.00448533
0.00451849
0.00455038
0.00458081
0.00460962
0.00463669
0.00466188
0.00468501
0.00470587
0.00472417
0.00473961
0.00358323
0.003606
0.00362741
0.00364792
0.00366795
0.00368771
0.00370724
0.0037265
0.0037454
0.0037638
0.00378157
0.00379855
0.00381457
0.00382943
0.00384294
0.00385487
0.00270354
0.0027579
0.00280969
0.00285778
0.00290202
0.00294261
0.00297986
0.00301411
0.00304565
0.00307478
0.00310172
0.00312665
0.0031497
0.00317098
0.00319054
0.00320844
0.00243009
0.00247272
0.00251246
0.00254993
0.00258543
0.00261913
0.00265115
0.00268156
0.00271044
0.00273786
0.00276388
0.00278858
0.00281202
0.00283426
0.00285537
0.0028754
0.0024463
0.00248253
0.00251564
0.00254634
0.00257518
0.00260253
0.00262861
0.00265361
0.00267764
0.0027008
0.00272318
0.0027449
0.00276606
0.00278672
0.00280695
0.00282683
0.00282772
0.00284077
0.00285646
0.00287354
0.00289135
0.00290949
0.00292774
0.00294596
0.0029641
0.00298215
0.00300013
0.00301804
0.00303597
0.00305418
0.00307276
0.00309179
0.0035818
0.00358382
0.00358634
0.00358979
0.00359438
0.00360022
0.0036074
0.00361597
0.00362594
0.00363733
0.00365012
0.00366431
0.00367983
0.00369665
0.003715
0.00373494
0.00436621
0.00436125
0.00436196
0.00436803
0.0043788
0.00439374
0.00441244
0.00443452
0.00445963
0.00448745
0.0045177
0.00455012
0.00458449
0.00462042
0.00465765
0.00469651
0.00525841
0.00531138
0.00536573
0.00542263
0.00548211
0.00554408
0.00560823
0.00567411
0.00574117
0.00580889
0.00587676
0.00594436
0.00601134
0.00607738
0.00614211
0.00620478
0.00665158
0.0067531
0.00688828
0.00704324
0.0072077
0.00737437
0.00753773
0.00769367
0.00783945
0.00797344
0.00809483
0.00820345
0.00829955
0.00838372
0.00845672
0.00851943
0.00914946
0.0100375
0.0107586
0.0113121
0.011721
0.0120109
0.0122037
0.0123182
0.0123701
0.0123731
0.0123382
0.0122745
0.0121894
0.0120887
0.0119772
0.0118585
0.0102431
0.009785
0.00946965
0.00925814
0.00911939
0.00902996
0.00897335
0.00893817
0.00891655
0.00890306
0.00889399
0.00888683
0.00887989
0.00887208
0.00886269
0.00885127
0.000875762
0.00132902
0.00178689
0.00223614
0.00268986
0.00315654
0.00364193
0.00415118
0.00466929
0.0051898
0.00570759
0.00621735
0.00671387
0.00719253
0.00764981
0.00808423
0.00849818
0.0089013
0.00925443
0.0095524
0.00979775
0.0099933
0.0101417
0.0102453
0.0103074
0.0103318
0.0103226
0.0102836
0.0102186
0.0101311
0.010023
0.00989595
0.00975288
0.00959667
0.00943062
0.0092594
0.00908392
0.00890909
0.0087441
0.00860142
0.00850729
0.00842747
0.00835114
0.00827565
0.00820041
0.00812536
0.00805062
0.00797629
0.00790249
0.00782934
0.00775693
0.00768537
0.00761473
0.00754511
0.00747656
0.00740914
0.00734289
0.00727786
0.00721407
0.00715154
0.00709028
0.00703029
0.00697159
0.00691415
0.00685799
0.00680307
0.00674939
0.00669693
0.00664567
0.00659559
0.00654666
0.00649887
0.00645218
0.00640657
0.00636201
0.00631849
0.00627596
0.00623441
0.00619381
0.00615413
0.00611535
0.00607745
0.00604039
0.00600415
0.00596872
0.00593406
0.00590016
0.005867
0.00583454
0.00580278
0.0057717
0.00574126
0.00571147
0.00568229
0.00565371
0.00562572
0.0055983
0.00557143
0.0055451
0.0055193
0.00549402
0.00546923
0.00544494
0.00542113
0.00539778
0.0053749
0.00535247
0.00533047
0.00530892
0.0052878
0.0052671
0.00524684
0.00522701
0.00520763
0.00518872
0.00517034
0.0051526
0.00513569
0.00512021
0.0051078
0.00100007
0.00164627
0.00231433
0.00303691
0.0038381
0.00472006
0.00567755
0.00670092
0.0077772
0.00889341
0.0100365
0.0111934
0.0123521
0.0135009
0.0146286
0.0157219
0.0167641
0.0177151
0.0185633
0.0193101
0.0199571
0.0205076
0.0209656
0.0213332
0.021616
0.0218206
0.021954
0.0220233
0.0220347
0.0219944
0.0219056
0.021775
0.0216084
0.0214112
0.021179
0.0209247
0.0206563
0.0203778
0.0200963
0.0198087
0.0195266
0.0192433
0.0189581
0.0186731
0.0183898
0.0181092
0.017832
0.0175588
0.0172899
0.0170257
0.0167663
0.0165119
0.0162628
0.0160189
0.0157804
0.0155472
0.0153194
0.015097
0.0148799
0.014668
0.0144614
0.0142599
0.0140634
0.0138719
0.0136852
0.0135032
0.0133257
0.0131528
0.0129843
0.01282
0.0126598
0.0125036
0.0123514
0.0122029
0.012058
0.0119168
0.0117789
0.0116444
0.0115131
0.0113849
0.0112598
0.0111376
0.0110182
0.0109016
0.0107876
0.0106762
0.0105672
0.0104607
0.0103565
0.0102546
0.0101548
0.0100572
0.0099616
0.009868
0.00977633
0.00968653
0.00959854
0.00951231
0.00942778
0.00934491
0.00926364
0.00918393
0.00910574
0.00902903
0.00895374
0.00887985
0.00880732
0.0087361
0.00866616
0.00859748
0.00853001
0.00846371
0.00839855
0.00833448
0.00827145
0.00820936
0.00814809
0.00808748
0.00802818
0.00797452
0.00107617
0.00179262
0.0025637
0.00343083
0.0044208
0.0055342
0.00676335
0.0080952
0.00951234
0.0109946
0.0125203
0.0140689
0.0156215
0.0171621
0.0186771
0.0201504
0.0215525
0.02282
0.0239521
0.0249446
0.0257998
0.0265234
0.0271231
0.0275977
0.0279584
0.0282152
0.0283782
0.028457
0.0284607
0.028393
0.0282638
0.0280837
0.0278598
0.0275987
0.0273028
0.0269821
0.0266419
0.0262868
0.0259223
0.0255515
0.0251785
0.0248029
0.0244255
0.0240478
0.0236716
0.0232981
0.0229286
0.0225638
0.0222045
0.0218513
0.0215044
0.0211642
0.0208309
0.0205048
0.0201857
0.0198739
0.0195693
0.0192718
0.0189815
0.0186983
0.018422
0.0181525
0.0178898
0.0176336
0.0173839
0.0171404
0.0169031
0.0166717
0.0164462
0.0162263
0.0160119
0.0158028
0.0155989
0.0154001
0.0152061
0.0150168
0.014832
0.0146517
0.0144757
0.0143038
0.014136
0.013972
0.0138118
0.0136552
0.0135022
0.0133525
0.0132062
0.013063
0.012923
0.0127859
0.0126517
0.0125204
0.0123917
0.0122657
0.0121422
0.0120212
0.0119027
0.0117864
0.0116724
0.0115605
0.0114508
0.0113432
0.0112375
0.0111338
0.011032
0.010932
0.0108338
0.0107373
0.0106425
0.0105493
0.0104577
0.0103677
0.0102791
0.0101919
0.010106
0.0100213
0.00993772
0.00985522
0.0097752
0.00970587
0.00110502
0.00177505
0.00254561
0.00344604
0.00450892
0.0057396
0.00713371
0.00867874
0.0103544
0.0121344
0.0139822
0.0158688
0.0177652
0.0196485
0.0214987
0.0232904
0.0249526
0.0264462
0.0277662
0.0289108
0.0298854
0.0307003
0.0313712
0.0318872
0.0322699
0.0325336
0.0326906
0.0327525
0.0327305
0.0326324
0.0324714
0.0322555
0.0319927
0.0316909
0.031356
0.0309944
0.0306106
0.0302095
0.0297966
0.0293761
0.0289507
0.0285216
0.0280901
0.0276579
0.0272268
0.0267984
0.0263739
0.0259545
0.025541
0.0251341
0.0247343
0.024342
0.0239574
0.0235809
0.0232124
0.0228521
0.0224999
0.0221559
0.02182
0.0214921
0.0211721
0.0208598
0.0205552
0.020258
0.0199682
0.0196855
0.0194097
0.0191408
0.0188785
0.0186226
0.0183729
0.0181293
0.0178917
0.0176597
0.0174333
0.0172123
0.0169965
0.0167858
0.01658
0.0163789
0.0161824
0.0159903
0.0158026
0.015619
0.0154395
0.0152639
0.015092
0.0149239
0.0147592
0.0145981
0.0144402
0.0142856
0.0141341
0.0139856
0.0138401
0.0136974
0.0135574
0.0134201
0.0132855
0.0131533
0.0130236
0.0128962
0.0127712
0.0126483
0.0125277
0.0124091
0.0122927
0.0121781
0.0120656
0.0119549
0.011846
0.0117388
0.0116334
0.0115296
0.0114273
0.0113264
0.0112269
0.011129
0.0110347
0.0109548
0.00110301
0.0016731
0.00239592
0.00328198
0.00437318
0.00568385
0.00721468
0.00895279
0.0108739
0.0129566
0.0151173
0.017321
0.0195239
0.0216915
0.0237727
0.0257058
0.0274365
0.028973
0.0303113
0.0314557
0.0324153
0.0332029
0.033831
0.0343133
0.0346623
0.0348916
0.0350143
0.0350428
0.0349894
0.0348645
0.0346784
0.0344391
0.0341547
0.0338328
0.0334803
0.0331026
0.0327041
0.0322894
0.031863
0.031429
0.0309898
0.0305472
0.0301025
0.0296573
0.0292132
0.0287714
0.0283333
0.0279
0.0274722
0.0270507
0.026636
0.0262285
0.0258286
0.0254365
0.0250523
0.024676
0.0243079
0.0239477
0.0235956
0.0232514
0.022915
0.0225863
0.0222652
0.0219515
0.0216452
0.021346
0.0210538
0.0207684
0.0204896
0.0202173
0.0199514
0.0196915
0.0194377
0.0191896
0.0189472
0.0187102
0.0184785
0.018252
0.0180306
0.0178139
0.017602
0.0173946
0.0171916
0.016993
0.0167984
0.016608
0.0164214
0.0162386
0.0160595
0.0158839
0.0157118
0.015543
0.0153775
0.0152152
0.0150558
0.0148995
0.014746
0.0145953
0.0144473
0.014302
0.0141591
0.0140188
0.0138809
0.0137453
0.013612
0.013481
0.013352
0.0132252
0.0131004
0.0129776
0.0128567
0.0127376
0.0126204
0.0125048
0.012391
0.0122787
0.0121681
0.0120595
0.0119552
0.0118676
0.00109683
0.00160687
0.00238115
0.00334813
0.00456646
0.00605606
0.00781178
0.00980705
0.012
0.0143454
0.0167653
0.0191792
0.0215158
0.023699
0.0256568
0.0273728
0.0288836
0.0301991
0.0313274
0.0322783
0.0330628
0.033694
0.0341854
0.0345502
0.0348004
0.0349479
0.0350044
0.0349813
0.0348893
0.0347382
0.0345365
0.0342912
0.0340091
0.0336966
0.0333593
0.0330019
0.0326282
0.0322419
0.0318464
0.0314448
0.0310391
0.0306311
0.0302218
0.0298126
0.0294044
0.0289982
0.0285951
0.0281958
0.0278009
0.0274111
0.0270267
0.0266482
0.0262759
0.0259099
0.0255504
0.0251975
0.0248513
0.0245117
0.0241788
0.0238525
0.0235328
0.0232197
0.0229129
0.0226125
0.0223183
0.0220302
0.0217481
0.0214719
0.0212014
0.0209365
0.0206771
0.0204231
0.0201743
0.0199307
0.0196919
0.0194581
0.0192289
0.0190043
0.0187842
0.0185685
0.018357
0.0181496
0.0179462
0.0177466
0.0175509
0.0173588
0.0171703
0.0169853
0.0168037
0.0166253
0.0164501
0.016278
0.0161089
0.0159428
0.0157795
0.0156189
0.015461
0.0153058
0.0151531
0.0150029
0.0148551
0.0147096
0.0145664
0.0144254
0.0142866
0.01415
0.0140153
0.0138827
0.013752
0.0136232
0.0134963
0.0133712
0.0132479
0.0131262
0.0130062
0.0128879
0.0127714
0.012657
0.0125472
0.0124551
0.00116704
0.00215387
0.00348318
0.00501476
0.00674668
0.00868104
0.0107927
0.0130346
0.015352
0.0176823
0.0199172
0.02197
0.0237873
0.0253305
0.0266455
0.0277743
0.0287431
0.0295688
0.030264
0.0308389
0.0313025
0.0316638
0.0319321
0.0321162
0.0322242
0.0322642
0.0322439
0.0321709
0.0320525
0.0318953
0.0317052
0.0314871
0.0312455
0.0309846
0.030708
0.0304189
0.0301198
0.0298131
0.0295009
0.029185
0.0288669
0.0285474
0.0282275
0.0279078
0.0275888
0.027271
0.0269551
0.0266413
0.0263301
0.0260218
0.0257167
0.025415
0.0251168
0.0248225
0.024532
0.0242455
0.023963
0.0236846
0.0234103
0.0231401
0.0228741
0.0226121
0.0223543
0.0221005
0.0218508
0.0216051
0.0213633
0.0211254
0.0208914
0.0206611
0.0204346
0.0202118
0.0199926
0.019777
0.0195648
0.0193561
0.0191507
0.0189487
0.0187498
0.0185542
0.0183616
0.0181721
0.0179855
0.0178018
0.017621
0.0174429
0.0172676
0.0170949
0.0169248
0.0167573
0.0165922
0.0164295
0.0162692
0.0161112
0.0159555
0.015802
0.0156506
0.0155013
0.0153541
0.0152089
0.0150656
0.0149243
0.0147848
0.0146472
0.0145114
0.0143773
0.014245
0.0141144
0.0139854
0.013858
0.0137322
0.013608
0.0134853
0.0133641
0.0132444
0.0131263
0.0130098
0.0128954
0.0127855
0.0126928
0.00252157
0.00714151
0.0106052
0.013268
0.0153785
0.0171116
0.0185764
0.0198428
0.0209552
0.0219068
0.022715
0.0234067
0.0239952
0.0245018
0.0249385
0.0253158
0.0256406
0.0259172
0.0261484
0.0263361
0.0264819
0.0265879
0.0266564
0.0266901
0.0266915
0.0266637
0.0266097
0.0265324
0.0264351
0.0263206
0.0261917
0.0260506
0.0258995
0.0257402
0.0255744
0.0254033
0.0252283
0.0250503
0.02487
0.0246883
0.0245057
0.0243224
0.0241388
0.023955
0.023771
0.023587
0.023403
0.0232191
0.0230353
0.0228518
0.0226685
0.0224856
0.0223031
0.022121
0.0219394
0.0217584
0.021578
0.0213983
0.0212193
0.0210411
0.0208637
0.0206871
0.0205115
0.0203368
0.0201631
0.0199904
0.0198188
0.0196483
0.0194789
0.0193107
0.0191437
0.018978
0.0188134
0.0186502
0.0184882
0.0183276
0.0181682
0.0180102
0.0178535
0.0176982
0.0175442
0.0173916
0.0172404
0.0170905
0.0169419
0.0167947
0.0166489
0.0165044
0.0163612
0.0162193
0.0160788
0.0159396
0.0158017
0.015665
0.0155296
0.0153955
0.0152627
0.0151311
0.0150007
0.0148715
0.0147436
0.0146168
0.0144912
0.0143667
0.0142434
0.0141213
0.0140003
0.0138804
0.0137616
0.013644
0.0135274
0.0134119
0.0132976
0.0131843
0.0130722
0.0129613
0.0128517
0.0127439
0.0126399
0.0125515
0.0101234
0.0110752
0.011932
0.0127113
0.013436
0.0141138
0.0147457
0.0153312
0.0158679
0.0163561
0.0167963
0.0171872
0.0175277
0.0178196
0.018066
0.0182717
0.0184415
0.0185799
0.0186911
0.0187788
0.0188461
0.018896
0.0189307
0.0189525
0.0189632
0.0189644
0.0189575
0.018944
0.0189249
0.0189015
0.0188746
0.0188452
0.018814
0.0187814
0.018748
0.0187142
0.0186801
0.018646
0.018612
0.018578
0.0185441
0.0185101
0.0184759
0.0184413
0.0184059
0.0183697
0.0183323
0.0182935
0.0182532
0.0182112
0.0181673
0.0181213
0.0180733
0.018023
0.0179704
0.0179155
0.0178582
0.0177986
0.0177366
0.0176722
0.0176055
0.0175365
0.0174653
0.0173919
0.0173164
0.0172389
0.0171595
0.0170781
0.016995
0.0169102
0.0168238
0.0167359
0.0166466
0.0165559
0.016464
0.0163709
0.0162767
0.0161815
0.0160854
0.0159885
0.0158907
0.0157923
0.0156933
0.0155937
0.0154936
0.015393
0.015292
0.0151908
0.0150892
0.0149874
0.0148854
0.0147832
0.014681
0.0145787
0.0144764
0.0143741
0.0142718
0.0141696
0.0140675
0.0139655
0.0138637
0.0137621
0.0136607
0.0135595
0.0134586
0.013358
0.0132577
0.0131577
0.0130581
0.0129589
0.01286
0.0127616
0.0126636
0.0125661
0.0124692
0.012373
0.0122776
0.0121833
0.0120918
0.0120132
0.00961712
0.00962536
0.00965775
0.00971263
0.00979103
0.0098911
0.0100093
0.0101413
0.0102826
0.0104285
0.0105745
0.0107166
0.0108517
0.0109773
0.0110921
0.0111954
0.0112871
0.0113679
0.0114384
0.0114999
0.0115535
0.0116006
0.0116425
0.0116803
0.0117151
0.0117481
0.0117799
0.0118115
0.0118435
0.0118765
0.0119109
0.0119471
0.0119855
0.0120262
0.0120695
0.0121154
0.0121638
0.0122149
0.0122685
0.0123244
0.0123824
0.0124424
0.012504
0.0125669
0.0126308
0.0126953
0.0127601
0.0128248
0.012889
0.0129524
0.0130146
0.0130754
0.0131343
0.0131912
0.0132457
0.0132976
0.0133468
0.0133929
0.0134358
0.0134755
0.0135117
0.0135444
0.0135735
0.0135989
0.0136207
0.0136388
0.0136532
0.0136639
0.013671
0.0136745
0.0136744
0.0136708
0.0136638
0.0136535
0.0136399
0.0136231
0.0136032
0.0135804
0.0135546
0.0135261
0.0134948
0.013461
0.0134247
0.0133859
0.0133449
0.0133016
0.0132562
0.0132088
0.0131594
0.0131083
0.0130553
0.0130007
0.0129444
0.0128867
0.0128275
0.0127669
0.0127051
0.012642
0.0125778
0.0125125
0.0124462
0.012379
0.0123108
0.0122418
0.012172
0.0121015
0.0120303
0.0119585
0.0118862
0.0118133
0.01174
0.0116663
0.0115923
0.011518
0.0114435
0.011369
0.0112945
0.0112205
0.0111479
0.0110847
0.0073349
0.00734594
0.00735335
0.00735871
0.00736356
0.00736866
0.00737417
0.00738001
0.00738594
0.00739156
0.00739644
0.00740017
0.00740247
0.00740317
0.00740226
0.00739984
0.00739611
0.00739133
0.00738582
0.00737994
0.00737407
0.00736863
0.00736401
0.00736062
0.00735885
0.00735908
0.00736165
0.00736688
0.00737506
0.00738645
0.00740128
0.00741974
0.00744199
0.00746816
0.00749835
0.00753262
0.00757104
0.00761359
0.00766029
0.00771108
0.00776589
0.00782464
0.0078872
0.00795342
0.00802312
0.00809612
0.00817219
0.00825108
0.00833255
0.00841631
0.00850207
0.00858953
0.00867837
0.00876828
0.00885893
0.00894999
0.00904114
0.00913205
0.00922242
0.00931194
0.00940031
0.00948725
0.0095725
0.0096558
0.00973694
0.00981568
0.00989185
0.00996527
0.0100358
0.0101032
0.0101675
0.0102286
0.0102863
0.0103406
0.0103915
0.0104389
0.0104828
0.0105232
0.01056
0.0105934
0.0106234
0.0106499
0.010673
0.0106928
0.0107093
0.0107226
0.0107328
0.0107399
0.0107439
0.010745
0.0107433
0.0107388
0.0107315
0.0107217
0.0107093
0.0106944
0.0106772
0.0106577
0.0106359
0.0106121
0.0105861
0.0105582
0.0105284
0.0104968
0.0104634
0.0104284
0.0103917
0.0103535
0.0103139
0.0102729
0.0102306
0.0101871
0.0101425
0.0100968
0.0100501
0.0100026
0.00995437
0.00990566
0.00985723
0.00981404
0.00586782
0.00588047
0.00588845
0.0058916
0.00589002
0.00588392
0.00587347
0.00585883
0.00584021
0.00581784
0.00579201
0.00576304
0.00573133
0.00569735
0.0056616
0.00562463
0.00558696
0.00554913
0.00551161
0.00547486
0.00543927
0.00540518
0.00537291
0.00534271
0.00531479
0.00528936
0.00526654
0.00524647
0.00522923
0.0052149
0.00520354
0.00519518
0.00518986
0.00518759
0.00518838
0.00519226
0.00519921
0.00520925
0.00522237
0.00523859
0.0052579
0.0052803
0.0053058
0.0053344
0.00536608
0.00540083
0.00543866
0.00547953
0.00552341
0.00557028
0.00562008
0.00567276
0.00572824
0.00578644
0.00584726
0.00591059
0.0059763
0.00604425
0.00611427
0.0061862
0.00625986
0.00633505
0.00641157
0.00648919
0.0065677
0.00664688
0.00672649
0.0068063
0.00688609
0.00696561
0.00704466
0.007123
0.00720043
0.00727675
0.00735175
0.00742527
0.00749712
0.00756714
0.0076352
0.00770116
0.00776489
0.00782629
0.00788527
0.00794173
0.00799562
0.00804687
0.00809544
0.00814129
0.0081844
0.00822474
0.00826232
0.00829712
0.00832917
0.00835847
0.00838504
0.00840892
0.00843014
0.00844874
0.00846475
0.00847822
0.0084892
0.00849775
0.00850392
0.00850776
0.00850934
0.00850871
0.00850594
0.0085011
0.00849424
0.00848544
0.00847477
0.00846229
0.00844808
0.00843223
0.00841481
0.00839593
0.00837568
0.00835423
0.00833198
0.00831128
0.00475194
0.00476097
0.00476653
0.00476849
0.00476681
0.00476155
0.00475274
0.00474043
0.00472473
0.00470579
0.00468382
0.0046591
0.00463197
0.00460283
0.00457213
0.00454032
0.00450788
0.00447523
0.0044428
0.00441095
0.00438001
0.00435024
0.00432187
0.00429508
0.00427
0.00424674
0.00422535
0.00420587
0.00418829
0.00417261
0.0041588
0.00414682
0.00413661
0.00412813
0.00412132
0.00411614
0.00411255
0.00411049
0.00410994
0.00411087
0.00411327
0.00411712
0.00412242
0.00412917
0.00413739
0.00414709
0.00415831
0.00417106
0.00418538
0.00420131
0.00421888
0.00423813
0.00425911
0.00428184
0.00430636
0.00433271
0.00436091
0.00439098
0.00442294
0.00445679
0.00449253
0.00453016
0.00456966
0.00461099
0.00465413
0.00469901
0.00474558
0.00479377
0.0048435
0.00489468
0.0049472
0.00500095
0.00505581
0.00511166
0.00516835
0.00522576
0.00528374
0.00534213
0.00540079
0.00545956
0.0055183
0.00557685
0.00563506
0.00569279
0.0057499
0.00580625
0.0058617
0.00591614
0.00596945
0.00602152
0.00607224
0.00612153
0.00616928
0.00621544
0.00625992
0.00630266
0.00634361
0.00638273
0.00641998
0.00645532
0.00648873
0.0065202
0.0065497
0.00657725
0.00660283
0.00662646
0.00664814
0.00666789
0.00668573
0.00670169
0.0067158
0.00672808
0.00673857
0.00674732
0.00675438
0.00675979
0.00676361
0.00676592
0.00676685
0.0067667
0.00386506
0.00387337
0.00387967
0.00388387
0.00388592
0.00388582
0.00388357
0.00387922
0.00387282
0.00386448
0.00385437
0.00384268
0.00382963
0.0038155
0.00380056
0.00378512
0.00376946
0.00375384
0.00373852
0.0037237
0.00370957
0.00369626
0.00368389
0.00367254
0.00366224
0.00365301
0.00364485
0.00363772
0.00363159
0.00362641
0.0036221
0.0036186
0.00361585
0.00361377
0.00361231
0.00361141
0.00361101
0.00361107
0.00361155
0.00361242
0.00361365
0.00361523
0.00361715
0.0036194
0.00362199
0.00362494
0.00362826
0.00363196
0.00363609
0.00364065
0.0036457
0.00365127
0.00365739
0.00366411
0.00367148
0.00367953
0.00368831
0.00369787
0.00370825
0.0037195
0.00373167
0.00374478
0.0037589
0.00377404
0.00379026
0.00380758
0.00382603
0.00384563
0.0038664
0.00388836
0.00391152
0.00393588
0.00396143
0.00398817
0.00401608
0.00404514
0.00407532
0.00410657
0.00413886
0.00417214
0.00420636
0.00424144
0.00427732
0.00431393
0.00435119
0.00438902
0.00442733
0.00446604
0.00450505
0.00454427
0.00458361
0.00462297
0.00466227
0.00470141
0.00474029
0.00477884
0.00481696
0.00485457
0.00489159
0.00492795
0.00496358
0.0049984
0.00503236
0.00506539
0.00509745
0.00512848
0.00515844
0.0051873
0.00521501
0.00524156
0.00526691
0.00529105
0.00531396
0.00533564
0.00535606
0.00537524
0.00539318
0.00540986
0.00542527
0.00543847
0.0032247
0.00323936
0.00325245
0.00326401
0.0032741
0.00328277
0.00329009
0.00329616
0.00330107
0.00330494
0.0033079
0.0033101
0.00331171
0.00331291
0.00331387
0.00331475
0.00331573
0.00331694
0.0033185
0.00332051
0.00332303
0.00332612
0.00332978
0.00333404
0.00333886
0.00334421
0.00335005
0.00335631
0.00336293
0.00336985
0.00337698
0.00338427
0.00339165
0.00339904
0.0034064
0.00341366
0.00342078
0.00342772
0.00343445
0.00344094
0.00344717
0.00345312
0.00345878
0.00346416
0.00346926
0.00347409
0.00347865
0.00348297
0.00348706
0.00349096
0.00349468
0.00349826
0.00350172
0.00350511
0.00350845
0.00351178
0.00351515
0.00351858
0.00352212
0.0035258
0.00352967
0.00353376
0.00353812
0.00354278
0.00354779
0.00355318
0.00355899
0.00356525
0.00357201
0.00357929
0.00358714
0.00359557
0.00360462
0.00361432
0.00362469
0.00363575
0.00364753
0.00366003
0.00367328
0.00368727
0.00370203
0.00371754
0.00373381
0.00375083
0.00376859
0.00378708
0.00380628
0.00382617
0.00384672
0.00386791
0.0038897
0.00391205
0.00393492
0.00395828
0.00398207
0.00400625
0.00403077
0.00405557
0.0040806
0.00410582
0.00413115
0.00415655
0.00418196
0.00420733
0.00423261
0.00425773
0.00428264
0.00430731
0.00433166
0.00435567
0.00437928
0.00440246
0.00442515
0.00444733
0.00446896
0.00449001
0.00451043
0.00453021
0.00454925
0.0045662
0.00289442
0.00291247
0.00292963
0.00294595
0.00296153
0.00297642
0.00299072
0.00300453
0.00301793
0.00303104
0.00304396
0.00305681
0.00306971
0.00308277
0.00309608
0.00310973
0.00312381
0.00313837
0.00315344
0.00316905
0.0031852
0.00320187
0.00321901
0.00323659
0.00325454
0.00327279
0.00329126
0.00330986
0.00332851
0.00334712
0.00336561
0.00338388
0.00340186
0.00341949
0.00343668
0.00345338
0.00346955
0.00348512
0.00350007
0.00351437
0.00352799
0.00354092
0.00355315
0.00356469
0.00357553
0.00358568
0.00359516
0.003604
0.00361221
0.00361981
0.00362685
0.00363335
0.00363934
0.00364487
0.00364996
0.00365465
0.00365899
0.003663
0.00366673
0.00367022
0.00367349
0.0036766
0.00367958
0.00368246
0.00368528
0.00368807
0.00369088
0.00369372
0.00369664
0.00369967
0.00370283
0.00370616
0.00370969
0.00371344
0.00371744
0.00372171
0.00372629
0.00373119
0.00373643
0.00374203
0.00374802
0.0037544
0.00376121
0.00376843
0.0037761
0.00378422
0.00379279
0.00380182
0.00381132
0.00382128
0.00383171
0.00384259
0.00385393
0.00386571
0.00387793
0.00389057
0.00390361
0.00391705
0.00393085
0.00394499
0.00395946
0.00397423
0.00398927
0.00400456
0.00402005
0.00403573
0.00405157
0.00406752
0.00408356
0.00409965
0.00411577
0.00413187
0.00414794
0.00416393
0.00417982
0.00419558
0.00421118
0.00422661
0.00424178
0.00425549
0.00284642
0.00286581
0.00288506
0.00290426
0.00292349
0.00294283
0.00296237
0.00298219
0.0030024
0.00302308
0.00304431
0.00306618
0.00308877
0.00311213
0.0031363
0.00316133
0.00318722
0.00321397
0.00324154
0.0032699
0.00329897
0.00332869
0.00335895
0.00338966
0.00342068
0.00345191
0.00348321
0.00351446
0.00354553
0.00357629
0.00360662
0.00363641
0.00366555
0.00369395
0.00372152
0.00374819
0.00377389
0.00379857
0.0038222
0.00384473
0.00386616
0.00388648
0.00390568
0.00392377
0.00394078
0.00395672
0.00397163
0.00398554
0.00399849
0.00401053
0.00402169
0.00403202
0.00404158
0.00405041
0.00405856
0.00406608
0.00407302
0.00407943
0.00408536
0.00409084
0.00409594
0.00410068
0.0041051
0.00410926
0.00411318
0.00411691
0.00412047
0.0041239
0.00412723
0.00413048
0.00413369
0.00413689
0.00414008
0.0041433
0.00414657
0.00414991
0.00415334
0.00415686
0.00416051
0.00416429
0.00416821
0.00417229
0.00417654
0.00418097
0.00418559
0.00419039
0.0041954
0.00420061
0.00420602
0.00421165
0.00421749
0.00422354
0.00422979
0.00423626
0.00424294
0.00424981
0.00425688
0.00426414
0.00427158
0.0042792
0.00428698
0.00429492
0.004303
0.0043112
0.00431953
0.00432796
0.00433647
0.00434506
0.0043537
0.00436239
0.00437111
0.00437983
0.00438855
0.00439726
0.00440594
0.00441459
0.00442319
0.00443177
0.00444025
0.00444782
0.00311136
0.00313158
0.00315252
0.00317429
0.00319698
0.00322067
0.00324545
0.0032714
0.0032986
0.0033271
0.00335697
0.00338824
0.00342094
0.00345506
0.00349059
0.00352748
0.00356567
0.00360506
0.00364555
0.003687
0.00372927
0.00377218
0.00381557
0.00385924
0.003903
0.00394667
0.00399005
0.00403297
0.00407523
0.00411668
0.00415716
0.00419654
0.0042347
0.00427152
0.00430692
0.00434084
0.00437321
0.004404
0.0044332
0.00446079
0.00448679
0.00451122
0.0045341
0.00455549
0.00457542
0.00459397
0.00461118
0.00462713
0.00464189
0.00465552
0.0046681
0.0046797
0.00469039
0.00470025
0.00470934
0.00471772
0.00472547
0.00473264
0.0047393
0.00474549
0.00475126
0.00475668
0.00476178
0.0047666
0.00477119
0.00477557
0.00477979
0.00478387
0.00478783
0.00479171
0.00479552
0.00479928
0.004803
0.00480672
0.00481042
0.00481414
0.00481786
0.00482161
0.00482539
0.0048292
0.00483304
0.00483691
0.00484082
0.00484477
0.00484874
0.00485275
0.00485678
0.00486083
0.00486491
0.00486899
0.00487308
0.00487716
0.00488125
0.00488532
0.00488937
0.00489339
0.00489738
0.00490133
0.00490522
0.00490906
0.00491282
0.0049165
0.0049201
0.0049236
0.00492699
0.00493027
0.00493343
0.00493645
0.00493932
0.00494205
0.00494462
0.00494702
0.00494926
0.00495133
0.00495324
0.004955
0.00495662
0.00495812
0.00495949
0.00496032
0.00375652
0.00377978
0.00380476
0.00383151
0.00386006
0.00389044
0.00392269
0.00395683
0.00399286
0.00403077
0.00407055
0.00411214
0.00415549
0.00420049
0.00424703
0.00429497
0.00434413
0.00439433
0.00444536
0.00449698
0.00454896
0.00460105
0.004653
0.00470457
0.00475551
0.00480558
0.00485458
0.00490229
0.00494855
0.00499318
0.00503605
0.00507705
0.00511608
0.0051531
0.00518804
0.0052209
0.00525167
0.00528038
0.00530706
0.00533176
0.00535455
0.0053755
0.0053947
0.00541224
0.00542822
0.00544273
0.00545588
0.00546778
0.00547851
0.00548818
0.0054969
0.00550475
0.00551181
0.00551819
0.00552395
0.00552917
0.00553393
0.00553828
0.00554228
0.00554599
0.00554946
0.00555273
0.00555584
0.00555882
0.0055617
0.00556451
0.00556727
0.00556999
0.0055727
0.00557539
0.00557808
0.00558078
0.00558347
0.00558618
0.00558888
0.00559159
0.00559429
0.00559697
0.00559964
0.00560227
0.00560487
0.00560741
0.0056099
0.0056123
0.00561463
0.00561685
0.00561897
0.00562097
0.00562283
0.00562456
0.00562612
0.00562752
0.00562874
0.00562978
0.00563062
0.00563126
0.00563168
0.00563186
0.00563179
0.00563146
0.00563085
0.00562995
0.00562877
0.0056273
0.00562552
0.00562342
0.00562099
0.00561822
0.00561511
0.00561165
0.00560786
0.00560374
0.00559929
0.00559453
0.00558948
0.00558415
0.00557858
0.00557279
0.00556682
0.00556071
0.00473686
0.00477862
0.00482172
0.00486608
0.00491163
0.00495833
0.00500612
0.00505495
0.00510476
0.00515548
0.00520703
0.00525932
0.00531221
0.00536557
0.00541925
0.00547304
0.00552677
0.0055802
0.00563312
0.00568531
0.00573652
0.00578653
0.00583512
0.00588209
0.00592725
0.00597043
0.00601149
0.00605031
0.00608679
0.00612087
0.00615251
0.00618169
0.00620842
0.00623273
0.00625467
0.00627432
0.00629177
0.00630711
0.00632046
0.00633194
0.00634168
0.00634981
0.00635646
0.00636176
0.00636586
0.00636888
0.00637094
0.00637217
0.00637268
0.00637258
0.00637197
0.00637095
0.00636958
0.00636797
0.00636616
0.00636423
0.00636223
0.0063602
0.00635818
0.00635621
0.00635431
0.0063525
0.00635081
0.00634922
0.00634777
0.00634643
0.00634522
0.00634412
0.00634312
0.00634222
0.0063414
0.00634064
0.00633992
0.00633923
0.00633854
0.00633784
0.0063371
0.00633631
0.00633544
0.00633446
0.00633337
0.00633215
0.00633076
0.0063292
0.00632745
0.0063255
0.00632332
0.00632092
0.00631827
0.00631536
0.00631215
0.00630863
0.00630479
0.00630062
0.00629609
0.00629118
0.00628585
0.00628011
0.00627392
0.0062673
0.00626023
0.00625272
0.00624474
0.0062363
0.00622741
0.00621808
0.00620834
0.00619818
0.00618764
0.00617672
0.00616544
0.00615383
0.0061419
0.00612969
0.00611721
0.00610451
0.00609163
0.00607861
0.00606549
0.00605271
0.0062656
0.00632514
0.00638324
0.00643984
0.00649495
0.00654859
0.00660076
0.00665148
0.00670075
0.00674858
0.00679498
0.00683991
0.00688334
0.00692521
0.00696545
0.00700398
0.00704069
0.00707549
0.00710826
0.0071389
0.00716731
0.0071934
0.00721709
0.00723833
0.00725707
0.00727329
0.007287
0.00729821
0.00730698
0.00731335
0.00731743
0.0073193
0.00731908
0.0073169
0.00731291
0.00730724
0.00730006
0.00729152
0.00728177
0.00727098
0.0072593
0.00724689
0.00723388
0.00722041
0.00720662
0.00719263
0.00717854
0.00716445
0.00715046
0.00713664
0.00712307
0.0071098
0.00709688
0.00708434
0.00707223
0.00706056
0.00704934
0.00703858
0.00702828
0.00701843
0.00700902
0.00700003
0.00699144
0.00698322
0.00697535
0.00696779
0.00696052
0.00695348
0.00694666
0.00694001
0.0069335
0.00692708
0.00692072
0.00691439
0.00690805
0.00690167
0.00689522
0.00688867
0.006882
0.00687517
0.00686818
0.006861
0.00685361
0.00684598
0.00683807
0.00682985
0.00682129
0.00681235
0.00680299
0.00679319
0.00678293
0.00677221
0.00676098
0.00674923
0.00673697
0.00672421
0.00671096
0.00669724
0.00668306
0.00666845
0.0066534
0.00663796
0.00662212
0.00660591
0.00658936
0.00657247
0.00655526
0.00653776
0.00651998
0.00650195
0.00648368
0.00646519
0.0064465
0.00642765
0.00640865
0.00638955
0.00637038
0.00635119
0.00633207
0.00631382
0.00857242