/*--------------------------------*- C++ -*----------------------------------*\
| =========                 |                                                 |
| \\      /  F ield         | OpenFOAM: The Open Source CFD Toolbox           |
|  \\    /   O peration     | Version:  4.0                                   |
|   \\  /    A nd           | Web:      www.OpenFOAM.org                      |
|    \\/     M anipulation  |                                                 |
\*---------------------------------------------------------------------------*/
FoamFile
{
    version     2.0;
    format      ascii;
    class       volScalarField;
    location    "85";
    object      nut;
}
// * * * * * * * * * * * * * * * * * * * * * * * * * * * * * * * * * * * * * //

dimensions      [0 2 -1 0 0 0 0];

internalField   nonuniform List<scalar> 
3136
(
0.00151435
0.00148565
0.00146212
0.00144266
0.00142646
0.00141286
0.00140136
0.00139157
0.00138317
0.00137591
0.00136961
0.0013641
0.00135926
0.00135498
0.00135117
0.00134906
0.00468202
0.00445634
0.00429765
0.00417481
0.00407378
0.00398736
0.00391143
0.00384352
0.00378201
0.00372585
0.00367427
0.00362671
0.0035828
0.00354232
0.00350529
0.00347056
0.00428475
0.0043674
0.00443373
0.00448471
0.00452223
0.00454852
0.0045657
0.00457561
0.00457982
0.00457961
0.00457601
0.00456981
0.00456162
0.00455182
0.00454051
0.0045277
0.00701208
0.00682928
0.00668138
0.00655912
0.00645595
0.00636724
0.00628967
0.00622079
0.00615879
0.0061023
0.00605031
0.00600202
0.00595678
0.00591405
0.00587332
0.00583421
0.00680289
0.00694392
0.00705447
0.00713838
0.00719933
0.00724074
0.00726572
0.00727699
0.00727688
0.00726741
0.00725028
0.00722691
0.00719849
0.00716598
0.00713018
0.00709173
0.0127075
0.011881
0.0112845
0.0108348
0.0104838
0.0102019
0.00996957
0.00977355
0.00960463
0.00945624
0.00932362
0.00920326
0.00909257
0.0089896
0.00889288
0.00880135
0.011035
0.0116324
0.0120024
0.0122013
0.0122761
0.0122639
0.0121928
0.0120832
0.0119493
0.0118014
0.0116463
0.0114886
0.0113314
0.0111767
0.0110257
0.0108792
0.0306166
0.0246038
0.0213881
0.0193565
0.0179385
0.0168803
0.0160514
0.0153778
0.0148147
0.0143328
0.0139128
0.0135411
0.0132079
0.0129061
0.0126302
0.0123761
0.0199515
0.0179577
0.0165388
0.0154787
0.0146555
0.0139961
0.0134545
0.0130001
0.012612
0.0122758
0.0119805
0.0117167
0.0114776
0.0112587
0.0110566
0.0108682
0.00758098
0.00771665
0.007815
0.00788304
0.00792693
0.00795178
0.00796177
0.00796028
0.00795
0.00793307
0.00791113
0.00788593
0.00785811
0.00782703
0.00779321
0.00775699
0.00624744
0.0061528
0.00607885
0.00602161
0.00597785
0.00594502
0.00592106
0.00590428
0.00589328
0.00588689
0.00588413
0.00588419
0.00588651
0.00589043
0.00589498
0.00589972
0.00426554
0.00435046
0.0044327
0.00451187
0.0045875
0.00465925
0.0047269
0.00479031
0.00484942
0.00490422
0.00495479
0.00500126
0.00504378
0.00508264
0.00511807
0.00515001
0.00553226
0.00545713
0.00539501
0.00534336
0.00529994
0.0052631
0.0052316
0.00520448
0.00518099
0.00516059
0.00514285
0.00512747
0.00511417
0.00510275
0.00509301
0.00508471
0.004321
0.00437472
0.00442236
0.00446217
0.00449445
0.00452032
0.00454085
0.00455698
0.00456945
0.0045789
0.00458582
0.00459063
0.00459366
0.00459522
0.00459554
0.00459485
0.00433413
0.00436077
0.00438538
0.00439642
0.00439328
0.00437826
0.00435388
0.00432246
0.00428601
0.00424623
0.00420444
0.00416167
0.00411872
0.00407613
0.00403435
0.00399366
0.0014205
0.00138837
0.00136581
0.00135047
0.00134032
0.00133373
0.00132954
0.00132693
0.00132533
0.00132432
0.00132365
0.00132312
0.0013226
0.00132202
0.00132132
0.00132047
0.000415105
0.000511371
0.000592965
0.000663335
0.000727528
0.000788116
0.000846544
0.000903789
0.000958549
0.00101059
0.00105983
0.00110617
0.00114953
0.00118984
0.00122712
0.00126153
0.00129347
0.00132383
0.00134987
0.00137147
0.001389
0.00140282
0.00141323
0.00142046
0.00142478
0.0014265
0.00142588
0.00142321
0.00141872
0.00141266
0.00140512
0.00139621
0.0013861
0.00137496
0.00136303
0.00135061
0.00133775
0.0013248
0.00131245
0.00130165
0.00129447
0.00128836
0.00128249
0.00127666
0.00127082
0.00126497
0.00125912
0.00125327
0.00124744
0.00124163
0.00123586
0.00123013
0.00122444
0.00121881
0.00121325
0.00120775
0.00120232
0.00119697
0.0011917
0.00118651
0.00118141
0.0011764
0.00117147
0.00116663
0.00116188
0.00115722
0.00115265
0.00114816
0.00114377
0.00113946
0.00113524
0.0011311
0.00112705
0.00112307
0.00111918
0.00111537
0.00111164
0.00110798
0.00110439
0.00110088
0.00109744
0.00109407
0.00109076
0.00108752
0.00108435
0.00108123
0.00107818
0.00107519
0.00107225
0.00106937
0.00106654
0.00106377
0.00106105
0.00105838
0.00105575
0.00105318
0.00105065
0.00104816
0.00104572
0.00104332
0.00104096
0.00103865
0.00103637
0.00103413
0.00103193
0.00102976
0.00102764
0.00102554
0.00102349
0.00102146
0.00101947
0.00101752
0.0010156
0.00101372
0.00101188
0.00101008
0.00100834
0.00100667
0.00100513
0.00100389
0.000443595
0.000954695
0.00129028
0.00164274
0.00202618
0.00243749
0.00287106
0.00332138
0.00378463
0.00425721
0.00473569
0.00521673
0.00569653
0.00617021
0.00663071
0.00706764
0.00746664
0.00779646
0.00807946
0.00832843
0.00854741
0.00873914
0.00890587
0.00904864
0.00916929
0.0092698
0.00935217
0.00941819
0.00946955
0.00950796
0.00953382
0.00954859
0.00955382
0.00955085
0.00953975
0.00952012
0.00949426
0.00946313
0.00942639
0.00938052
0.00932341
0.00925802
0.00918746
0.00911385
0.00903842
0.00896193
0.00888483
0.00880745
0.00873005
0.00865282
0.00857593
0.0084995
0.00842364
0.00834846
0.00827403
0.00820041
0.00812765
0.00805581
0.00798491
0.00791499
0.00784606
0.00777814
0.00771124
0.00764535
0.00758049
0.00751665
0.00745382
0.007392
0.00733117
0.00727133
0.00721245
0.00715452
0.00709753
0.00704146
0.00698629
0.006932
0.00687857
0.00682599
0.00677423
0.00672327
0.0066731
0.00662369
0.00657502
0.00652708
0.00647985
0.00643331
0.00638743
0.00634221
0.00629763
0.00625366
0.0062103
0.00616752
0.00612531
0.00608365
0.00604254
0.00600195
0.00596187
0.0059223
0.00588321
0.00584459
0.00580644
0.00576874
0.00573148
0.00569465
0.00565825
0.00562225
0.00558666
0.00555146
0.00551665
0.00548222
0.00544817
0.00541448
0.00538116
0.0053482
0.00531561
0.00528338
0.00525153
0.00522015
0.00518989
0.00516368
0.000460183
0.00127895
0.00183423
0.00241907
0.00305894
0.00374429
0.00446285
0.00520318
0.00595498
0.00670829
0.00745331
0.00818123
0.00888326
0.00955094
0.0101759
0.0107487
0.011257
0.011683
0.0120548
0.0123826
0.0126715
0.0129256
0.0131482
0.0133396
0.0135027
0.0136399
0.0137537
0.0138465
0.0139204
0.0139781
0.0140182
0.0140435
0.0140561
0.0140575
0.0140488
0.0140312
0.0140059
0.0139739
0.0139361
0.0138921
0.0138417
0.0137853
0.0137239
0.0136586
0.0135902
0.0135195
0.0134471
0.0133733
0.0132986
0.0132232
0.0131473
0.0130712
0.012995
0.0129188
0.0128429
0.0127672
0.0126919
0.0126171
0.0125428
0.012469
0.0123959
0.0123234
0.0122517
0.0121806
0.0121103
0.0120407
0.0119719
0.0119038
0.0118365
0.0117699
0.0117041
0.0116391
0.0115748
0.0115112
0.0114483
0.0113861
0.0113246
0.0112638
0.0112037
0.0111442
0.0110853
0.011027
0.0109694
0.0109123
0.0108557
0.0107998
0.0107443
0.0106894
0.0106349
0.010581
0.0105275
0.0104744
0.0104218
0.0103697
0.0103179
0.0102665
0.0102155
0.0101649
0.0101147
0.0100648
0.0100153
0.00996609
0.00991721
0.00986866
0.00982043
0.00977249
0.00972486
0.00967753
0.00963048
0.00958372
0.00953724
0.00949104
0.00944511
0.00939945
0.00935406
0.00930894
0.00926413
0.00921993
0.00917779
0.00914398
0.000466331
0.00145005
0.00214133
0.00285281
0.0036273
0.00445227
0.00531143
0.00618978
0.00707319
0.00794777
0.00879808
0.0096124
0.0103786
0.011086
0.0117278
0.0122979
0.0127897
0.0132195
0.0136024
0.0139448
0.0142508
0.014524
0.0147683
0.0149807
0.0151648
0.0153233
0.0154584
0.0155723
0.0156668
0.0157438
0.0158048
0.0158514
0.0158852
0.0159077
0.01592
0.0159234
0.0159188
0.0159072
0.0158897
0.015867
0.0158394
0.015807
0.0157702
0.0157295
0.0156855
0.0156388
0.0155898
0.0155389
0.0154865
0.0154329
0.0153782
0.0153228
0.0152667
0.0152102
0.0151533
0.0150962
0.015039
0.0149818
0.0149246
0.0148675
0.0148105
0.0147538
0.0146973
0.0146411
0.0145852
0.0145296
0.0144743
0.0144194
0.0143648
0.0143107
0.0142568
0.0142034
0.0141503
0.0140976
0.0140452
0.0139932
0.0139416
0.0138902
0.0138392
0.0137886
0.0137382
0.0136881
0.0136382
0.0135887
0.0135394
0.0134903
0.0134415
0.0133929
0.0133445
0.0132963
0.0132482
0.0132003
0.0131526
0.0131051
0.0130577
0.0130104
0.0129632
0.0129161
0.0128692
0.0128224
0.0127756
0.0127289
0.0126824
0.0126359
0.0125894
0.0125431
0.0124968
0.0124506
0.0124045
0.0123584
0.0123124
0.0122665
0.0122206
0.0121748
0.0121291
0.0120834
0.0120378
0.0119928
0.0119505
0.0119185
0.00046593
0.00149522
0.00223491
0.00295985
0.00373783
0.00456356
0.00542563
0.00631221
0.0072096
0.00810281
0.00896523
0.00978555
0.0105459
0.0112267
0.0118197
0.0123281
0.0127876
0.0132058
0.0135866
0.0139324
0.0142455
0.0145281
0.0147822
0.015009
0.0152103
0.015388
0.0155441
0.0156804
0.0157988
0.0159009
0.0159884
0.0160625
0.0161245
0.0161759
0.0162179
0.0162513
0.016277
0.016296
0.0163091
0.0163172
0.0163206
0.0163197
0.0163148
0.016306
0.0162939
0.0162788
0.0162611
0.0162411
0.0162191
0.0161954
0.0161701
0.0161435
0.0161158
0.0160871
0.0160575
0.0160271
0.0159961
0.0159645
0.0159324
0.0158998
0.0158669
0.0158337
0.0158002
0.0157664
0.0157325
0.0156983
0.0156641
0.0156296
0.0155951
0.0155605
0.0155257
0.0154909
0.015456
0.015421
0.015386
0.0153509
0.0153157
0.0152805
0.0152451
0.0152097
0.0151742
0.0151386
0.0151029
0.0150672
0.0150313
0.0149952
0.0149591
0.0149228
0.0148864
0.0148499
0.0148132
0.0147763
0.0147393
0.0147021
0.0146647
0.0146272
0.0145895
0.0145516
0.0145135
0.0144752
0.0144368
0.0143981
0.0143592
0.0143202
0.014281
0.0142416
0.014202
0.0141622
0.0141223
0.0140822
0.0140419
0.0140014
0.0139608
0.01392
0.0138791
0.013838
0.0137969
0.0137564
0.0137187
0.0136921
0.00046465
0.00140393
0.00202604
0.00259425
0.00322629
0.00393264
0.00470576
0.00553088
0.00638683
0.00724478
0.00807803
0.00886737
0.00958363
0.0101801
0.0107059
0.0111895
0.0116367
0.0120493
0.012429
0.0127772
0.0130955
0.0133859
0.0136502
0.0138904
0.0141079
0.0143045
0.0144818
0.0146416
0.0147855
0.0149152
0.0150319
0.0151369
0.0152313
0.0153161
0.0153925
0.0154612
0.015523
0.0155786
0.0156287
0.015674
0.0157149
0.0157517
0.0157845
0.0158138
0.0158397
0.0158624
0.0158823
0.0158995
0.0159143
0.0159269
0.0159374
0.0159461
0.0159531
0.0159584
0.0159623
0.0159648
0.015966
0.015966
0.0159649
0.0159627
0.0159595
0.0159553
0.0159503
0.0159444
0.0159377
0.0159302
0.0159219
0.0159129
0.0159033
0.015893
0.015882
0.0158704
0.0158581
0.0158453
0.0158319
0.0158179
0.0158034
0.0157882
0.0157726
0.0157564
0.0157396
0.0157223
0.0157044
0.0156861
0.0156671
0.0156477
0.0156277
0.0156072
0.0155862
0.0155646
0.0155425
0.0155198
0.0154967
0.015473
0.0154488
0.015424
0.0153988
0.015373
0.0153467
0.0153199
0.0152926
0.0152648
0.0152366
0.0152078
0.0151785
0.0151488
0.0151186
0.015088
0.0150569
0.0150254
0.0149935
0.0149612
0.0149284
0.0148953
0.0148618
0.014828
0.0147941
0.0147606
0.0147299
0.0147099
0.000479331
0.00105264
0.00147463
0.00196353
0.00252505
0.00315346
0.00383743
0.00456142
0.00530477
0.0060205
0.00668615
0.00730045
0.00786106
0.00838117
0.00886177
0.00930787
0.00972315
0.01011
0.01047
0.0108045
0.0111149
0.0114024
0.0116686
0.0119149
0.0121428
0.0123535
0.0125485
0.0127292
0.0128968
0.0130528
0.0131982
0.013334
0.0134612
0.0135805
0.0136928
0.0137988
0.013899
0.0139939
0.0140841
0.01417
0.014252
0.0143302
0.0144048
0.0144761
0.0145442
0.0146091
0.0146711
0.0147302
0.0147866
0.0148405
0.0148919
0.0149409
0.0149877
0.0150322
0.0150747
0.0151152
0.0151538
0.0151905
0.0152254
0.0152585
0.01529
0.0153198
0.015348
0.0153747
0.0153998
0.0154235
0.0154458
0.0154667
0.0154863
0.0155045
0.0155215
0.0155371
0.0155516
0.0155648
0.0155769
0.0155878
0.0155975
0.0156062
0.0156137
0.0156201
0.0156254
0.0156297
0.015633
0.0156352
0.0156363
0.0156365
0.0156357
0.0156338
0.015631
0.0156272
0.0156225
0.0156168
0.0156101
0.0156025
0.015594
0.0155846
0.0155743
0.0155631
0.015551
0.0155381
0.0155242
0.0155096
0.0154941
0.0154778
0.0154607
0.0154428
0.0154242
0.0154048
0.0153846
0.0153638
0.0153422
0.01532
0.0152971
0.0152736
0.0152496
0.015225
0.0152001
0.0151754
0.0151532
0.0151405
0.000704753
0.00143634
0.00205367
0.00257402
0.00303204
0.00345186
0.00384901
0.00423356
0.00461089
0.0049836
0.00535551
0.00572608
0.00609194
0.00645132
0.00680196
0.00714247
0.0074717
0.00778868
0.00809264
0.00838307
0.00865971
0.0089226
0.00917205
0.00940856
0.00963275
0.00984532
0.0100471
0.0102388
0.0104214
0.0105958
0.0107626
0.0109227
0.0110766
0.0112249
0.0113682
0.011507
0.0116415
0.0117722
0.0118994
0.0120232
0.012144
0.0122617
0.0123767
0.0124888
0.0125981
0.0127047
0.0128086
0.0129098
0.0130084
0.0131043
0.0131976
0.0132884
0.0133766
0.0134623
0.0135455
0.0136262
0.0137045
0.0137805
0.013854
0.0139253
0.0139943
0.014061
0.0141255
0.0141878
0.014248
0.0143061
0.0143621
0.014416
0.014468
0.014518
0.014566
0.0146122
0.0146565
0.0146989
0.0147396
0.0147784
0.0148156
0.014851
0.0148847
0.0149167
0.0149471
0.0149759
0.015003
0.0150286
0.0150527
0.0150752
0.0150962
0.0151157
0.0151338
0.0151504
0.0151655
0.0151793
0.0151916
0.0152026
0.0152122
0.0152205
0.0152275
0.0152331
0.0152375
0.0152406
0.0152425
0.0152432
0.0152427
0.0152409
0.0152381
0.0152341
0.015229
0.0152228
0.0152156
0.0152074
0.0151981
0.0151879
0.0151768
0.0151648
0.015152
0.0151384
0.0151243
0.0151102
0.0150978
0.0150931
0.00152385
0.00171902
0.00192091
0.00213129
0.00235156
0.00258144
0.00281994
0.00306574
0.00331719
0.00357286
0.00383137
0.00409101
0.00435002
0.00460695
0.00486061
0.00511013
0.00535483
0.00559414
0.00582768
0.00605512
0.0062763
0.00649115
0.0066997
0.0069021
0.00709856
0.00728934
0.00747477
0.00765522
0.00783109
0.0080028
0.00817073
0.00833527
0.00849677
0.00865554
0.00881185
0.00896596
0.00911805
0.0092683
0.00941683
0.00956373
0.00970907
0.00985288
0.00999514
0.0101358
0.0102749
0.0104122
0.0105478
0.0106815
0.0108133
0.0109432
0.0110709
0.0111965
0.0113199
0.011441
0.0115598
0.0116763
0.0117904
0.011902
0.0120112
0.012118
0.0122222
0.012324
0.0124233
0.01252
0.0126143
0.0127061
0.0127955
0.0128823
0.0129668
0.0130488
0.0131284
0.0132057
0.0132805
0.0133531
0.0134233
0.0134913
0.013557
0.0136205
0.0136818
0.0137409
0.0137979
0.0138527
0.0139055
0.0139562
0.0140048
0.0140514
0.0140961
0.0141388
0.0141795
0.0142183
0.0142553
0.0142903
0.0143236
0.014355
0.0143847
0.0144125
0.0144387
0.0144631
0.0144859
0.014507
0.0145265
0.0145444
0.0145607
0.0145755
0.0145887
0.0146005
0.0146109
0.0146198
0.0146273
0.0146335
0.0146384
0.0146421
0.0146445
0.0146457
0.0146459
0.0146451
0.0146434
0.0146413
0.0146403
0.0146446
0.00344376
0.00342605
0.00341704
0.00341835
0.00343137
0.00345652
0.00349363
0.00354228
0.0036018
0.00367135
0.00374996
0.00383669
0.00393058
0.00403072
0.00413625
0.00424639
0.00436043
0.00447773
0.00459774
0.00471995
0.00484396
0.00496942
0.00509605
0.00522361
0.00535191
0.00548082
0.00561024
0.00574011
0.00587041
0.00600114
0.00613232
0.006264
0.00639622
0.00652903
0.00666248
0.00679661
0.00693146
0.00706704
0.00720335
0.0073404
0.00747814
0.00761652
0.00775548
0.00789492
0.00803474
0.00817482
0.00831503
0.00845522
0.00859526
0.00873499
0.00887426
0.00901291
0.0091508
0.00928778
0.0094237
0.00955844
0.00969185
0.00982382
0.00995423
0.010083
0.0102099
0.0103351
0.0104583
0.0105794
0.0106985
0.0108154
0.0109302
0.0110427
0.011153
0.0112609
0.0113665
0.0114697
0.0115706
0.0116691
0.0117652
0.0118589
0.0119502
0.0120391
0.0121256
0.0122097
0.0122914
0.0123708
0.0124478
0.0125224
0.0125948
0.0126648
0.0127325
0.012798
0.0128612
0.0129221
0.0129809
0.0130375
0.0130919
0.0131441
0.0131943
0.0132423
0.0132883
0.0133323
0.0133742
0.0134142
0.0134522
0.0134883
0.0135225
0.0135549
0.0135854
0.0136142
0.0136412
0.0136664
0.01369
0.013712
0.0137323
0.0137512
0.0137685
0.0137844
0.0137989
0.0138122
0.0138244
0.0138357
0.0138472
0.0138614
0.00451378
0.00449919
0.00448433
0.00447002
0.00445706
0.00444599
0.00443719
0.00443103
0.00442781
0.00442784
0.00443135
0.00443856
0.00444966
0.00446481
0.00448409
0.00450755
0.00453518
0.00456691
0.00460263
0.00464222
0.00468551
0.00473233
0.00478253
0.00483593
0.00489238
0.00495173
0.00501384
0.0050786
0.00514589
0.00521562
0.00528771
0.0053621
0.00543871
0.00551752
0.00559847
0.00568155
0.00576673
0.005854
0.00594335
0.00603477
0.00612825
0.00622379
0.00632137
0.00642096
0.00652255
0.00662608
0.00673153
0.00683883
0.00694791
0.00705869
0.00717108
0.00728497
0.00740025
0.0075168
0.00763447
0.00775312
0.0078726
0.00799276
0.00811344
0.00823447
0.0083557
0.00847696
0.00859809
0.00871893
0.00883934
0.00895916
0.00907826
0.00919649
0.00931374
0.00942987
0.00954478
0.00965836
0.00977051
0.00988114
0.00999016
0.0100975
0.0102031
0.0103069
0.0104087
0.0105087
0.0106067
0.0107027
0.0107966
0.0108885
0.0109782
0.0110658
0.0111513
0.0112346
0.0113157
0.0113947
0.0114715
0.011546
0.0116185
0.0116887
0.0117567
0.0118226
0.0118864
0.011948
0.0120074
0.0120648
0.0121201
0.0121733
0.0122245
0.0122737
0.0123209
0.0123661
0.0124094
0.0124508
0.0124904
0.0125281
0.0125641
0.0125983
0.0126308
0.0126617
0.012691
0.0127189
0.0127453
0.0127706
0.0127953
0.01282
0.0057965
0.00576004
0.00572463
0.00569016
0.00565664
0.00562414
0.00559273
0.00556253
0.00553367
0.00550636
0.0054808
0.00545725
0.00543599
0.00541729
0.00540143
0.00538864
0.00537913
0.00537306
0.00537051
0.00537154
0.00537614
0.00538426
0.0053958
0.00541064
0.00542863
0.00544959
0.00547333
0.00549964
0.00552832
0.00555914
0.00559192
0.00562644
0.00566254
0.00570002
0.00573876
0.00577863
0.00581953
0.00586138
0.00590414
0.00594779
0.00599233
0.00603779
0.00608422
0.00613168
0.00618027
0.00623008
0.00628121
0.00633378
0.0063879
0.00644369
0.00650125
0.00656068
0.00662209
0.00668554
0.00675111
0.00681883
0.00688874
0.00696086
0.00703517
0.00711165
0.00719027
0.00727096
0.00735364
0.00743822
0.00752459
0.00761265
0.00770224
0.00779325
0.00788552
0.00797889
0.00807321
0.00816833
0.00826408
0.0083603
0.00845684
0.00855354
0.00865025
0.00874682
0.0088431
0.00893898
0.0090343
0.00912896
0.00922283
0.0093158
0.00940777
0.00949865
0.00958835
0.00967678
0.00976387
0.00984954
0.00993374
0.0100164
0.0100975
0.0101769
0.0102547
0.0103308
0.0104051
0.0104777
0.0105485
0.0106175
0.0106847
0.0107501
0.0108136
0.0108753
0.0109352
0.0109932
0.0110495
0.0111039
0.0111566
0.0112075
0.0112566
0.0113041
0.0113498
0.0113939
0.0114365
0.0114774
0.0115169
0.0115551
0.011592
0.0116266
0.00705127
0.00700936
0.00696648
0.00692307
0.00687959
0.00683643
0.00679395
0.00675246
0.00671226
0.00667364
0.00663691
0.00660238
0.00657037
0.0065412
0.00651515
0.00649248
0.00647338
0.006458
0.0064464
0.00643857
0.00643444
0.00643385
0.00643662
0.00644249
0.00645116
0.00646229
0.00647554
0.00649053
0.00650689
0.00652424
0.00654223
0.00656054
0.00657886
0.00659691
0.00661449
0.00663139
0.00664747
0.00666265
0.00667685
0.00669007
0.00670232
0.00671366
0.00672417
0.00673397
0.00674319
0.00675199
0.00676052
0.00676898
0.00677755
0.00678642
0.00679579
0.00680586
0.00681681
0.00682885
0.00684214
0.00685687
0.0068732
0.00689128
0.00691126
0.00693327
0.00695742
0.00698382
0.00701255
0.00704368
0.00707726
0.00711334
0.00715194
0.00719305
0.00723668
0.00728279
0.00733133
0.00738226
0.0074355
0.00749096
0.00754856
0.00760819
0.00766972
0.00773305
0.00779803
0.00786453
0.00793241
0.00800153
0.00807175
0.00814291
0.00821487
0.0082875
0.00836064
0.00843417
0.00850794
0.00858182
0.00865569
0.00872943
0.00880293
0.00887606
0.00894874
0.00902087
0.00909234
0.00916309
0.00923302
0.00930207
0.00937017
0.00943725
0.00950327
0.00956817
0.00963191
0.00969446
0.00975576
0.00981581
0.00987457
0.00993202
0.00998816
0.010043
0.0100964
0.0101486
0.0101994
0.0102489
0.0102972
0.0103441
0.0103897
0.0104313
0.00871424
0.00863106
0.00855145
0.00847522
0.00840227
0.00833258
0.00826617
0.00820309
0.00814342
0.00808727
0.00803478
0.00798607
0.00794128
0.00790053
0.00786389
0.00783138
0.00780296
0.00777849
0.00775779
0.00774058
0.00772652
0.00771521
0.00770622
0.00769909
0.00769332
0.00768843
0.00768396
0.00767946
0.00767453
0.00766881
0.00766201
0.0076539
0.00764429
0.00763307
0.00762018
0.00760562
0.00758942
0.00757168
0.00755251
0.00753206
0.00751049
0.00748798
0.00746474
0.00744095
0.00741681
0.00739253
0.00736828
0.00734425
0.00732061
0.00729754
0.00727519
0.00725369
0.0072332
0.00721384
0.00719571
0.00717895
0.00716363
0.00714987
0.00713775
0.00712734
0.00711874
0.00711199
0.00710718
0.00710436
0.00710358
0.00710489
0.00710834
0.00711397
0.0071218
0.00713187
0.00714419
0.00715878
0.00717565
0.00719479
0.0072162
0.00723986
0.00726576
0.00729386
0.00732413
0.00735651
0.00739096
0.00742741
0.00746581
0.00750606
0.00754811
0.00759185
0.0076372
0.00768407
0.00773234
0.00778193
0.00783273
0.00788463
0.00793752
0.0079913
0.00804585
0.00810107
0.00815686
0.0082131
0.0082697
0.00832656
0.00838358
0.00844068
0.00849775
0.00855472
0.0086115
0.00866802
0.00872421
0.00877999
0.00883531
0.00889011
0.00894434
0.00899793
0.00905086
0.00910308
0.00915455
0.00920525
0.00925514
0.00930419
0.00935211
0.00939554
0.0107378
0.0106015
0.0104707
0.0103452
0.0102251
0.0101103
0.0100007
0.00989624
0.00979675
0.0097021
0.00961214
0.0095267
0.00944559
0.00936858
0.0092954
0.00922573
0.0091592
0.00909542
0.00903394
0.00897433
0.0089161
0.00885883
0.00880208
0.00874548
0.0086887
0.00863147
0.00857359
0.00851493
0.00845545
0.00839513
0.00833405
0.00827233
0.00821011
0.00814761
0.00808502
0.00802257
0.00796051
0.00789905
0.00783841
0.00777882
0.00772045
0.00766349
0.00760809
0.00755438
0.00750248
0.00745249
0.00740447
0.0073585
0.00731462
0.00727286
0.00723324
0.00719577
0.00716046
0.0071273
0.00709629
0.00706741
0.00704064
0.00701597
0.00699338
0.00697284
0.00695433
0.00693785
0.00692336
0.00691084
0.00690029
0.00689168
0.006885
0.00688024
0.00687738
0.00687641
0.00687733
0.00688011
0.00688476
0.00689125
0.00689959
0.00690975
0.00692172
0.0069355
0.00695106
0.00696838
0.00698745
0.00700824
0.00703072
0.00705488
0.00708066
0.00710804
0.00713698
0.00716743
0.00719936
0.0072327
0.0072674
0.00730342
0.00734068
0.00737913
0.0074187
0.00745932
0.00750093
0.00754346
0.00758682
0.00763096
0.00767579
0.00772123
0.00776723
0.0078137
0.00786056
0.00790775
0.0079552
0.00800283
0.00805059
0.00809839
0.00814619
0.00819391
0.00824151
0.00828892
0.00833609
0.00838297
0.00842951
0.00847565
0.00852104
0.00856224
0.0121403
0.0119203
0.0117139
0.0115193
0.011335
0.0111598
0.0109926
0.0108325
0.0106786
0.0105303
0.0103868
0.0102477
0.0101123
0.00998026
0.00985108
0.00972439
0.00959984
0.00947714
0.00935604
0.00923637
0.009118
0.00900087
0.00888497
0.00877036
0.00865713
0.00854544
0.00843545
0.00832739
0.00822145
0.00811787
0.00801685
0.00791861
0.00782334
0.00773119
0.00764231
0.0075568
0.00747476
0.00739624
0.00732126
0.00724985
0.00718197
0.0071176
0.00705669
0.00699917
0.00694497
0.00689399
0.00684616
0.00680137
0.00675952
0.00672051
0.00668424
0.00665062
0.00661953
0.00659089
0.00656461
0.00654058
0.00651874
0.00649899
0.00648127
0.00646549
0.00645159
0.00643952
0.00642921
0.0064206
0.00641365
0.00640832
0.00640456
0.00640233
0.00640161
0.00640235
0.00640455
0.00640816
0.00641317
0.00641955
0.00642731
0.0064364
0.00644683
0.00645858
0.00647164
0.006486
0.00650164
0.00651856
0.00653674
0.00655617
0.00657684
0.00659873
0.00662183
0.00664613
0.00667159
0.00669821
0.00672595
0.0067548
0.00678472
0.00681569
0.00684766
0.00688062
0.00691451
0.0069493
0.00698494
0.0070214
0.00705862
0.00709656
0.00713517
0.00717439
0.00721417
0.00725447
0.00729522
0.00733637
0.00737786
0.00741965
0.00746167
0.00750387
0.00754621
0.00758861
0.00763105
0.00767346
0.00771579
0.00775798
0.00779975
0.00783799
0.0106913
0.0105238
0.0103643
0.0102113
0.0100638
0.00992071
0.00978133
0.00964497
0.00951107
0.0093792
0.00924899
0.00912017
0.00899255
0.00886602
0.00874052
0.00861608
0.00849277
0.00837075
0.00825017
0.00813127
0.00801429
0.00789949
0.00778715
0.00767753
0.00757089
0.00746747
0.00736748
0.0072711
0.0071785
0.00708978
0.00700503
0.0069243
0.0068476
0.00677492
0.00670622
0.00664145
0.00658052
0.00652334
0.0064698
0.00641979
0.00637318
0.00632984
0.00628964
0.00625246
0.00621817
0.00618663
0.00615772
0.00613132
0.00610732
0.0060856
0.00606605
0.00604859
0.00603309
0.00601949
0.00600768
0.00599759
0.00598914
0.00598226
0.00597688
0.00597293
0.00597036
0.00596912
0.00596914
0.00597038
0.0059728
0.00597636
0.00598101
0.00598672
0.00599346
0.00600119
0.0060099
0.00601955
0.00603012
0.00604159
0.00605394
0.00606715
0.0060812
0.00609609
0.00611179
0.00612829
0.00614559
0.00616366
0.00618251
0.00620212
0.00622247
0.00624357
0.00626541
0.00628797
0.00631124
0.00633521
0.00635989
0.00638524
0.00641126
0.00643795
0.00646528
0.00649323
0.00652181
0.00655098
0.00658072
0.00661103
0.00664187
0.00667322
0.00670507
0.00673737
0.00677011
0.00680326
0.00683678
0.00687066
0.00690484
0.00693931
0.00697403
0.00700897
0.00704409
0.00707936
0.00711475
0.00715023
0.00718576
0.00722131
0.00725667
0.00728939
0.00771861
0.00767822
0.00763591
0.0075917
0.0075456
0.0074976
0.0074477
0.0073959
0.00734223
0.00728673
0.00722948
0.0071706
0.00711024
0.00704858
0.00698585
0.0069223
0.00685821
0.00679389
0.00672965
0.0066658
0.00660265
0.00654052
0.00647967
0.00642037
0.00636285
0.0063073
0.00625388
0.00620273
0.00615394
0.00610759
0.00606371
0.00602233
0.00598344
0.00594703
0.00591305
0.00588146
0.00585221
0.00582523
0.00580045
0.00577781
0.00575724
0.00573865
0.00572199
0.00570718
0.00569415
0.00568283
0.00567317
0.00566509
0.00565854
0.00565346
0.0056498
0.0056475
0.00564651
0.00564678
0.00564827
0.00565093
0.00565472
0.0056596
0.00566552
0.00567246
0.00568036
0.0056892
0.00569895
0.00570956
0.00572101
0.00573327
0.0057463
0.00576008
0.00577459
0.00578978
0.00580565
0.00582215
0.00583928
0.005857
0.00587529
0.00589413
0.0059135
0.00593338
0.00595374
0.00597458
0.00599586
0.00601758
0.00603971
0.00606223
0.00608514
0.00610841
0.00613203
0.00615598
0.00618025
0.00620482
0.00622968
0.00625482
0.00628021
0.00630586
0.00633173
0.00635783
0.00638413
0.00641062
0.00643729
0.00646412
0.0064911
0.00651822
0.00654545
0.00657278
0.00660021
0.00662771
0.00665527
0.00668287
0.00671051
0.00673816
0.00676581
0.00679346
0.00682109
0.00684868
0.00687624
0.00690375
0.00693121
0.00695861
0.00698582
0.00701112
0.00590429
0.00590832
0.00591153
0.00591364
0.00591443
0.0059137
0.0059113
0.00590713
0.0059011
0.00589319
0.0058834
0.00587177
0.00585838
0.00584334
0.0058268
0.00580892
0.00578988
0.00576988
0.00574914
0.00572786
0.00570626
0.00568452
0.00566285
0.0056414
0.00562035
0.00559983
0.00557995
0.00556083
0.00554255
0.00552517
0.00550877
0.00549339
0.00547906
0.00546581
0.00545367
0.00544264
0.00543274
0.00542397
0.00541634
0.00540985
0.0054045
0.00540028
0.00539718
0.00539521
0.00539434
0.00539458
0.0053959
0.00539831
0.00540177
0.00540628
0.00541183
0.00541838
0.00542593
0.00543445
0.00544392
0.00545433
0.00546563
0.00547782
0.00549087
0.00550474
0.00551942
0.00553487
0.00555106
0.00556798
0.00558558
0.00560385
0.00562275
0.00564224
0.00566231
0.00568292
0.00570404
0.00572564
0.00574769
0.00577017
0.00579303
0.00581626
0.00583983
0.0058637
0.00588785
0.00591225
0.00593688
0.0059617
0.0059867
0.00601184
0.0060371
0.00606246
0.0060879
0.00611338
0.0061389
0.00616442
0.00618992
0.00621538
0.00624079
0.00626612
0.00629136
0.00631647
0.00634145
0.00636628
0.00639093
0.0064154
0.00643967
0.00646373
0.00648755
0.00651112
0.00653444
0.00655749
0.00658029
0.00660282
0.00662508
0.00664709
0.00666883
0.00669031
0.00671154
0.00673252
0.00675326
0.00677377
0.00679407
0.00681416
0.00683397
0.00685238
0.0051786
0.00520396
0.00522625
0.00524559
0.00526215
0.00527606
0.0052875
0.00529661
0.00530354
0.00530846
0.00531151
0.00531285
0.00531262
0.00531097
0.00530804
0.00530397
0.00529889
0.00529295
0.00528627
0.00527896
0.00527116
0.00526297
0.0052545
0.00524585
0.00523711
0.00522838
0.00521974
0.00521127
0.00520305
0.00519515
0.00518763
0.00518057
0.00517402
0.00516805
0.00516271
0.00515806
0.00515414
0.00515099
0.00514867
0.0051472
0.00514662
0.00514697
0.00514827
0.00515053
0.00515378
0.00515803
0.00516329
0.00516956
0.00517684
0.00518513
0.00519442
0.0052047
0.00521596
0.00522817
0.00524133
0.0052554
0.00527037
0.00528619
0.00530285
0.00532031
0.00533854
0.00535751
0.00537717
0.00539749
0.00541844
0.00543997
0.00546204
0.00548463
0.00550768
0.00553116
0.00555502
0.00557924
0.00560376
0.00562856
0.00565359
0.00567882
0.0057042
0.00572971
0.00575531
0.00578096
0.00580663
0.00583229
0.0058579
0.00588343
0.00590885
0.00593414
0.00595925
0.00598416
0.00600883
0.00603325
0.00605737
0.00608118
0.00610463
0.00612767
0.00615028
0.00617247
0.00619421
0.00621551
0.00623638
0.0062568
0.00627677
0.00629631
0.0063154
0.00633407
0.0063523
0.00637011
0.00638749
0.00640445
0.00642099
0.00643711
0.00645282
0.00646814
0.00648305
0.00649758
0.00651173
0.00652552
0.00653897
0.00655208
0.00656486
0.0065768
0.00507747
0.00507062
0.00506411
0.00505788
0.00505183
0.00504588
0.00503996
0.005034
0.00502793
0.0050217
0.00501526
0.00500855
0.00500155
0.00499422
0.00498654
0.00497848
0.00497005
0.00496125
0.00495209
0.0049426
0.0049328
0.00492275
0.00491248
0.00490207
0.00489158
0.00488107
0.00487064
0.00486036
0.00485031
0.00484058
0.00483126
0.00482243
0.00481417
0.00480657
0.00479969
0.00479361
0.00478839
0.0047841
0.00478078
0.00477848
0.00477725
0.00477711
0.0047781
0.00478022
0.0047835
0.00478795
0.00479356
0.00480032
0.00480824
0.00481728
0.00482744
0.00483869
0.00485099
0.00486432
0.00487864
0.0048939
0.00491008
0.00492712
0.00494498
0.00496362
0.00498297
0.005003
0.00502364
0.00504486
0.00506659
0.0050888
0.00511141
0.00513439
0.00515769
0.00518124
0.00520501
0.00522895
0.00525301
0.00527714
0.00530131
0.00532546
0.00534956
0.00537357
0.00539744
0.00542115
0.00544463
0.00546785
0.00549077
0.00551336
0.00553557
0.00555733
0.00557854
0.00559918
0.00561925
0.00563877
0.00565771
0.0056761
0.00569393
0.00571124
0.00572802
0.00574426
0.00575997
0.00577515
0.00578979
0.00580389