/*--------------------------------*- C++ -*----------------------------------*\
| =========                 |                                                 |
| \\      /  F ield         | OpenFOAM: The Open Source CFD Toolbox           |
|  \\    /   O peration     | Version:  4.0                                   |
|   \\  /    A nd           | Web:      www.OpenFOAM.org                      |
|    \\/     M anipulation  |                                                 |
\*---------------------------------------------------------------------------*/
FoamFile
{
    version     2.0;
    format      ascii;
    class       volScalarField;
    location    "85";
    object      p;
}
// * * * * * * * * * * * * * * * * * * * * * * * * * * * * * * * * * * * * * //

dimensions      [0 2 -2 0 0 0 0];

internalField   nonuniform List<scalar> 
3136
(
-0.152638
-0.151051
-0.150278
-0.150115
-0.150119
-0.150158
-0.150241
-0.150377
-0.150564
-0.150794
-0.151064
-0.151375
-0.151726
-0.152105
-0.152477
-0.152616
-0.150444
-0.150657
-0.150524
-0.150449
-0.150467
-0.150521
-0.150602
-0.150721
-0.150881
-0.151083
-0.151329
-0.151624
-0.15198
-0.152421
-0.153019
-0.154004
-0.150367
-0.15063
-0.150611
-0.150515
-0.150484
-0.15051
-0.150574
-0.150676
-0.150819
-0.151007
-0.15124
-0.151525
-0.151874
-0.152304
-0.152848
-0.153542
-0.150309
-0.150334
-0.150344
-0.15034
-0.150364
-0.150422
-0.150507
-0.150617
-0.150758
-0.150933
-0.151149
-0.15141
-0.151726
-0.15211
-0.152577
-0.153137
-0.149937
-0.149978
-0.150081
-0.150173
-0.150249
-0.150328
-0.150418
-0.150523
-0.150648
-0.150799
-0.150984
-0.151206
-0.151472
-0.151791
-0.152166
-0.152599
-0.149484
-0.149743
-0.14999
-0.150132
-0.150214
-0.150282
-0.150352
-0.150429
-0.150521
-0.150634
-0.150774
-0.150945
-0.15115
-0.151393
-0.151673
-0.151987
-0.148661
-0.149317
-0.149775
-0.149984
-0.150092
-0.15017
-0.150235
-0.150294
-0.150357
-0.150432
-0.150527
-0.150643
-0.150784
-0.150948
-0.151134
-0.151335
-0.147972
-0.149112
-0.149735
-0.149961
-0.150055
-0.15011
-0.150142
-0.150162
-0.150181
-0.150208
-0.15025
-0.150307
-0.15038
-0.150467
-0.150564
-0.150662
-0.148543
-0.149431
-0.149925
-0.150078
-0.150107
-0.150099
-0.150072
-0.150036
-0.15
-0.149972
-0.149957
-0.149953
-0.14996
-0.149973
-0.149988
-0.149996
-0.149728
-0.15001
-0.150213
-0.150242
-0.150176
-0.150083
-0.149984
-0.149885
-0.149793
-0.149712
-0.149644
-0.149586
-0.149534
-0.149482
-0.149425
-0.149355
-0.150571
-0.150621
-0.150642
-0.150533
-0.150343
-0.150139
-0.149945
-0.149764
-0.149601
-0.149458
-0.149334
-0.149223
-0.149119
-0.149012
-0.148894
-0.148758
-0.150944
-0.151101
-0.151033
-0.150768
-0.150453
-0.150157
-0.149888
-0.149641
-0.149422
-0.149229
-0.14906
-0.148905
-0.148758
-0.148609
-0.148446
-0.148257
-0.151678
-0.151866
-0.151577
-0.151025
-0.150509
-0.150087
-0.149726
-0.149412
-0.149145
-0.148918
-0.148722
-0.148543
-0.148372
-0.148198
-0.148011
-0.147797
-0.152709
-0.15299
-0.152412
-0.151562
-0.150845
-0.150262
-0.149764
-0.149344
-0.149
-0.148718
-0.148478
-0.148264
-0.148063
-0.147863
-0.14765
-0.147412
-0.153988
-0.153415
-0.152074
-0.15109
-0.150425
-0.149865
-0.149375
-0.148975
-0.148658
-0.1484
-0.148178
-0.147977
-0.147784
-0.147587
-0.147371
-0.147127
-0.162559
-0.156981
-0.153253
-0.151487
-0.150435
-0.149594
-0.148928
-0.148442
-0.148097
-0.147842
-0.147638
-0.147463
-0.147301
-0.147134
-0.146949
-0.146732
-0.158869
-0.159852
-0.161163
-0.162657
-0.164228
-0.165793
-0.167282
-0.168629
-0.169775
-0.170665
-0.171238
-0.171424
-0.171143
-0.17031
-0.168851
-0.166711
-0.163855
-0.160266
-0.155992
-0.151143
-0.14583
-0.140155
-0.134215
-0.1281
-0.121897
-0.115681
-0.109516
-0.103456
-0.0975421
-0.0918038
-0.0862674
-0.0809606
-0.0759038
-0.0711053
-0.0665542
-0.062249
-0.0582039
-0.0544257
-0.050906
-0.0475695
-0.0444034
-0.0414685
-0.0387646
-0.0362696
-0.0339642
-0.0318328
-0.0298613
-0.0280372
-0.0263485
-0.0247843
-0.0233346
-0.02199
-0.0207421
-0.0195829
-0.0185051
-0.0175019
-0.0165672
-0.0156951
-0.0148805
-0.0141185
-0.0134048
-0.0127353
-0.0121064
-0.0115146
-0.010957
-0.0104308
-0.00993333
-0.00946245
-0.009016
-0.00859209
-0.00818899
-0.00780513
-0.0074391
-0.00708959
-0.00675544
-0.00643559
-0.00612907
-0.005835
-0.0055526
-0.00528113
-0.00501995
-0.00476845
-0.0045261
-0.00429239
-0.00406689
-0.00384918
-0.00363888
-0.00343567
-0.00323921
-0.00304924
-0.00286548
-0.00268771
-0.0025157
-0.00234925
-0.00218818
-0.00203231
-0.0018815
-0.00173561
-0.0015945
-0.00145805
-0.00132617
-0.00119875
-0.0010757
-0.000956959
-0.000842453
-0.000732132
-0.000625956
-0.000523904
-0.000425976
-0.000332207
-0.000242675
-0.000157532
-7.70434e-05
-1.66621e-06
6.78193e-05
0.000130059
0.00018264
0.000221331
0.000239387
0.000216545
-0.159017
-0.160011
-0.161264
-0.162697
-0.164213
-0.165726
-0.167167
-0.16848
-0.169612
-0.170513
-0.171125
-0.171381
-0.171203
-0.170507
-0.169213
-0.16725
-0.16455
-0.161095
-0.156954
-0.152238
-0.147052
-0.141495
-0.135658
-0.129632
-0.123502
-0.117343
-0.111222
-0.105194
-0.0993027
-0.0935694
-0.0880204
-0.0826928
-0.0776097
-0.072785
-0.068189
-0.0638163
-0.0597007
-0.0558443
-0.0522353
-0.0488542
-0.0456958
-0.0427623
-0.0400445
-0.0375265
-0.0351927
-0.0330296
-0.0310243
-0.029165
-0.0274405
-0.0258402
-0.0243544
-0.0229742
-0.021691
-0.0204973
-0.0193858
-0.0183498
-0.0173831
-0.0164801
-0.0156356
-0.0148448
-0.0141033
-0.0134071
-0.0127524
-0.012136
-0.0115547
-0.0110057
-0.0104865
-0.00999482
-0.00952844
-0.00908546
-0.00866413
-0.00826284
-0.00788014
-0.00751471
-0.00716535
-0.00683096
-0.00651054
-0.0062032
-0.00590812
-0.00562453
-0.00535177
-0.0050892
-0.00483627
-0.00459245
-0.00435728
-0.00413032
-0.00391118
-0.00369949
-0.00349494
-0.00329722
-0.00310605
-0.00292117
-0.00274236
-0.00256939
-0.00240207
-0.00224023
-0.00208368
-0.00193229
-0.0017859
-0.0016444
-0.00150766
-0.00137558
-0.00124807
-0.00112503
-0.0010064
-0.00089212
-0.000782131
-0.000676405
-0.00057493
-0.00047772
-0.000384826
-0.000296354
-0.000212494
-0.000133558
-6.00486e-05
7.23437e-06
6.70416e-05
0.000118341
0.000164728
0.000192525
-0.159968
-0.160895
-0.162004
-0.163285
-0.164657
-0.166038
-0.167367
-0.168592
-0.169666
-0.170541
-0.171159
-0.171455
-0.171353
-0.170765
-0.169601
-0.167763
-0.165143
-0.161744
-0.157674
-0.153037
-0.147933
-0.142459
-0.136695
-0.130732
-0.124663
-0.118562
-0.112492
-0.106511
-0.100669
-0.0949679
-0.0894324
-0.0841205
-0.079049
-0.0742244
-0.069633
-0.065274
-0.0611658
-0.0573085
-0.0536913
-0.0502911
-0.0470985
-0.0441201
-0.0413507
-0.0387791
-0.0363927
-0.0341787
-0.0321248
-0.0302192
-0.0284504
-0.0268079
-0.0252819
-0.0238633
-0.0225436
-0.021315
-0.0201701
-0.0191022
-0.0181051
-0.0171731
-0.0163008
-0.0154834
-0.0147166
-0.0139961
-0.0133184
-0.0126799
-0.0120775
-0.0115085
-0.0109701
-0.0104601
-0.00997628
-0.00951664
-0.00907941
-0.00866294
-0.00826577
-0.00788652
-0.00752397
-0.007177
-0.00684458
-0.00652577
-0.00621974
-0.00592571
-0.00564297
-0.00537088
-0.00510885
-0.00485634
-0.00461287
-0.00437798
-0.00415125
-0.00393232
-0.00372084
-0.0035165
-0.00331898
-0.00312805
-0.00294343
-0.00276491
-0.00259228
-0.00242534
-0.00226392
-0.00210785
-0.00195699
-0.00181119
-0.00167034
-0.00153431
-0.001403
-0.00127631
-0.00115418
-0.00103651
-0.000923251
-0.000814352
-0.000709774
-0.000609496
-0.000513511
-0.000421834
-0.0003345
-0.000251557
-0.000173043
-9.8949e-05
-2.90971e-05
3.87022e-05
0.000115942
0.000185252
-0.161252
-0.161998
-0.162908
-0.164014
-0.165237
-0.166497
-0.167732
-0.168893
-0.169934
-0.170805
-0.171446
-0.171793
-0.171767
-0.17127
-0.170186
-0.168352
-0.165676
-0.162232
-0.158144
-0.153503
-0.148407
-0.142953
-0.137208
-0.131256
-0.125205
-0.119125
-0.113077
-0.107114
-0.10128
-0.0955937
-0.0900813
-0.0847835
-0.0797184
-0.0748934
-0.070306
-0.0659576
-0.0618551
-0.0579968
-0.0543732
-0.0509686
-0.0477748
-0.0447921
-0.042015
-0.0394331
-0.0370346
-0.0348073
-0.0327392
-0.0308187
-0.0290348
-0.027377
-0.0258357
-0.0244018
-0.0230669
-0.0218231
-0.0206632
-0.0195805
-0.0185688
-0.0176225
-0.0167362
-0.0159051
-0.0151248
-0.0143913
-0.0137007
-0.0130499
-0.0124355
-0.0118548
-0.0113051
-0.0107842
-0.0102898
-0.00981991
-0.00937283
-0.00894687
-0.00854055
-0.00815249
-0.00778147
-0.00742635
-0.00708609
-0.00675976
-0.0064465
-0.00614553
-0.00585613
-0.00557765
-0.00530949
-0.0050511
-0.00480199
-0.00456169
-0.00432979
-0.0041059
-0.00388966
-0.00368075
-0.00347887
-0.00328375
-0.00309512
-0.00291275
-0.00273643
-0.00256595
-0.00240113
-0.00224181
-0.00208781
-0.00193901
-0.00179527
-0.00165645
-0.00152247
-0.0013932
-0.00126856
-0.00114847
-0.00103284
-0.000921608
-0.000814705
-0.000712065
-0.000613612
-0.000519254
-0.000428853
-0.000342183
-0.000258844
-0.000178141
-9.88504e-05
-1.688e-05
8.23026e-05
0.000174204
-0.162382
-0.162871
-0.163553
-0.164497
-0.165603
-0.166774
-0.167943
-0.169058
-0.170078
-0.170949
-0.171608
-0.171993
-0.172034
-0.171601
-0.17051
-0.168565
-0.165772
-0.162281
-0.15817
-0.153519
-0.14842
-0.142967
-0.137238
-0.131314
-0.125288
-0.119235
-0.113214
-0.107277
-0.101465
-0.0958074
-0.0903318
-0.0850668
-0.0800292
-0.0752273
-0.0706633
-0.0663389
-0.062256
-0.0584119
-0.0547988
-0.0514065
-0.0482272
-0.0452563
-0.0424869
-0.0399089
-0.037511
-0.0352816
-0.0332094
-0.0312832
-0.0294922
-0.0278264
-0.0262763
-0.0248329
-0.023488
-0.0222339
-0.0210633
-0.0199698
-0.0189471
-0.0179898
-0.0170924
-0.0162504
-0.0154593
-0.014715
-0.014014
-0.0133527
-0.0127283
-0.0121377
-0.0115784
-0.0110481
-0.0105446
-0.010066
-0.00961041
-0.00917624
-0.00876199
-0.00836629
-0.00798791
-0.00762571
-0.00727865
-0.00694579
-0.00662626
-0.00631928
-0.00602411
-0.00574011
-0.00546667
-0.00520322
-0.00494927
-0.00470435
-0.00446802
-0.0042399
-0.00401962
-0.00380685
-0.00360128
-0.00340263
-0.00321063
-0.00302504
-0.00284564
-0.00267222
-0.00250459
-0.00234257
-0.00218599
-0.00203471
-0.00188859
-0.00174749
-0.0016113
-0.0014799
-0.0013532
-0.0012311
-0.0011135
-0.00100032
-0.000891454
-0.000786795
-0.00068621
-0.000589512
-0.00049643
-0.000406539
-0.000319161
-0.000233225
-0.00014705
-5.61674e-05
5.31809e-05
0.000153159
-0.163231
-0.163282
-0.163686
-0.16449
-0.165513
-0.166616
-0.167725
-0.168793
-0.169789
-0.170656
-0.171306
-0.171692
-0.171776
-0.171315
-0.170029
-0.167923
-0.165088
-0.16159
-0.15749
-0.152863
-0.147798
-0.142386
-0.136711
-0.130853
-0.124898
-0.118915
-0.112964
-0.107095
-0.10135
-0.0957584
-0.0903487
-0.0851443
-0.0801612
-0.0754083
-0.0708896
-0.0666068
-0.06256
-0.0587463
-0.0551591
-0.0517904
-0.0486327
-0.0456794
-0.0429226
-0.0403529
-0.0379595
-0.0357315
-0.0336581
-0.0317285
-0.0299324
-0.0282601
-0.0267023
-0.0252503
-0.023896
-0.0226319
-0.0214509
-0.0203466
-0.019313
-0.0183445
-0.0174359
-0.0165827
-0.0157804
-0.0150252
-0.0143133
-0.0136413
-0.0130064
-0.0124056
-0.0118363
-0.0112964
-0.0107835
-0.0102957
-0.00983135
-0.00938869
-0.00896625
-0.00856268
-0.00817673
-0.00780726
-0.00745322
-0.00711368
-0.00678776
-0.00647466
-0.00617364
-0.00588406
-0.00560528
-0.00533674
-0.00507794
-0.00482839
-0.00458766
-0.00435534
-0.00413107
-0.00391449
-0.00370529
-0.00350319
-0.0033079
-0.00311918
-0.0029368
-0.00276053
-0.00259019
-0.00242558
-0.00226652
-0.00211288
-0.00196448
-0.00182121
-0.00168292
-0.00154951
-0.00142085
-0.00129684
-0.00117738
-0.00106235
-0.000951632
-0.000845093
-0.000742552
-0.00064377
-0.000548402
-0.000455937
-0.000365598
-0.000276232
-0.000186168
-9.15607e-05
1.85457e-05
0.000118574
-0.164057
-0.163114
-0.163191
-0.163921
-0.164828
-0.16578
-0.166748
-0.167707
-0.168673
-0.169592
-0.170288
-0.170616
-0.170443
-0.169689
-0.168295
-0.166193
-0.1634
-0.159959
-0.155932
-0.151396
-0.146436
-0.141139
-0.135587
-0.129861
-0.124037
-0.118183
-0.112357
-0.106608
-0.100976
-0.0954931
-0.0901851
-0.0850739
-0.0801747
-0.0754971
-0.071046
-0.0668234
-0.0628292
-0.0590606
-0.055512
-0.0521766
-0.0490473
-0.0461169
-0.0433775
-0.0408198
-0.0384339
-0.0362096
-0.0341366
-0.0322046
-0.0304039
-0.0287251
-0.0271593
-0.025698
-0.0243335
-0.0230583
-0.0218656
-0.0207492
-0.0197031
-0.0187219
-0.0178007
-0.0169347
-0.0161197
-0.0153519
-0.0146276
-0.0139435
-0.0132966
-0.0126842
-0.0121036
-0.0115527
-0.0110291
-0.0105311
-0.0100568
-0.00960455
-0.00917291
-0.0087605
-0.00836607
-0.00798847
-0.00762666
-0.00727969
-0.00694666
-0.00662678
-0.00631931
-0.00602356
-0.00573892
-0.0054648
-0.00520069
-0.0049461
-0.00470057
-0.0044637
-0.00423509
-0.00401441
-0.00380132
-0.00359551
-0.0033967
-0.00320464
-0.00301908
-0.0028398
-0.00266658
-0.00249923
-0.00233757
-0.00218143
-0.00203066
-0.0018851
-0.00174462
-0.00160909
-0.0014784
-0.00135241
-0.00123102
-0.0011141
-0.00100153
-0.000893137
-0.000788743
-0.000688092
-0.000590835
-0.000496475
-0.000404298
-0.000313291
-0.000222086
-0.000127976
-2.37807e-05
7.14842e-05
-0.164661
-0.161324
-0.161607
-0.162836
-0.163855
-0.164755
-0.165643
-0.166497
-0.167237
-0.167805
-0.168188
-0.168307
-0.168012
-0.167183
-0.165752
-0.163663
-0.160915
-0.157551
-0.153632
-0.149234
-0.144436
-0.139318
-0.133956
-0.128424
-0.122794
-0.117128
-0.111483
-0.105905
-0.100433
-0.0950996
-0.0899296
-0.0849437
-0.0801568
-0.075579
-0.071216
-0.0670706
-0.0631431
-0.0594312
-0.0559306
-0.0526355
-0.0495394
-0.0466352
-0.0439153
-0.041371
-0.0389932
-0.0367723
-0.0346988
-0.032763
-0.0309557
-0.0292681
-0.0276917
-0.0262183
-0.0248405
-0.0235512
-0.0223437
-0.021212
-0.0201503
-0.0191534
-0.0182163
-0.0173345
-0.016504
-0.0157207
-0.0149813
-0.0142824
-0.0136211
-0.0129946
-0.0124004
-0.0118362
-0.0112999
-0.0107896
-0.0103034
-0.00983981
-0.00939725
-0.00897438
-0.00856994
-0.00818278
-0.00781184
-0.00745615
-0.00711482
-0.00678703
-0.00647204
-0.00616914
-0.0058777
-0.00559714
-0.0053269
-0.0050665
-0.00481547
-0.00457337
-0.00433982
-0.00411445
-0.00389691
-0.0036869
-0.0034841
-0.00328826
-0.00309912
-0.00291643
-0.00273998
-0.00256955
-0.00240497
-0.00224604
-0.00209261
-0.0019445
-0.00180159
-0.00166372
-0.00153076
-0.0014026
-0.00127911
-0.00116015
-0.0010456
-0.000935308
-0.000829087
-0.000726715
-0.000627897
-0.000532236
-0.000439192
-0.000348039
-0.000257869
-0.00016731
-7.32931e-05
1.4224e-05
-0.154131
-0.153784
-0.155555
-0.157746
-0.159452
-0.160823
-0.162037
-0.163117
-0.164022
-0.164696
-0.165097
-0.165157
-0.164782
-0.163892
-0.162432
-0.160368
-0.157702
-0.154466
-0.150717
-0.146521
-0.14195
-0.137076
-0.131967
-0.126692
-0.121314
-0.115891
-0.110476
-0.105114
-0.0998435
-0.094695
-0.0896938
-0.08486
-0.0802086
-0.0757501
-0.0714912
-0.0674357
-0.0635848
-0.0599373
-0.0564902
-0.0532387
-0.0501772
-0.0472993
-0.044598
-0.0420654
-0.0396931
-0.0374726
-0.0353948
-0.0334511
-0.0316329
-0.0299319
-0.02834
-0.0268496
-0.0254536
-0.0241452
-0.0229181
-0.0217662
-0.0206842
-0.0196668
-0.0187094
-0.0178075
-0.0169571
-0.0161544
-0.0153959
-0.0146785
-0.0139991
-0.0133552
-0.0127441
-0.0121636
-0.0116116
-0.0110862
-0.0105856
-0.0101081
-0.00965229
-0.00921673
-0.00880018
-0.00840147
-0.00801953
-0.00765336
-0.00730207
-0.00696482
-0.00664084
-0.00632941
-0.00602988
-0.00574165
-0.00546415
-0.00519687
-0.00493932
-0.00469106
-0.00445168
-0.00422079
-0.00399804
-0.00378308
-0.00357562
-0.00337535
-0.00318202
-0.00299536
-0.00281514
-0.00264115
-0.00247317
-0.00231101
-0.00215449
-0.00200345
-0.00185772
-0.00171715
-0.00158161
-0.00145097
-0.00132509
-0.00120385
-0.00108712
-0.000974763
-0.000866641
-0.000762581
-0.000662386
-0.000565813
-0.000472571
-0.000382296
-0.000294609
-0.000209459
-0.000127789
-4.98402e-05
-0.155233
-0.156386
-0.157693
-0.158962
-0.159967
-0.160752
-0.161413
-0.161977
-0.16241
-0.162654
-0.162649
-0.162336
-0.161653
-0.160541
-0.158952
-0.156854
-0.154237
-0.151122
-0.147549
-0.143574
-0.139256
-0.134657
-0.129837
-0.124854
-0.119764
-0.114619
-0.109468
-0.104353
-0.099311
-0.0943725
-0.0895622
-0.0848998
-0.0804003
-0.0760751
-0.0719318
-0.0679752
-0.0642078
-0.0606295
-0.0572387
-0.054032
-0.0510048
-0.0481516
-0.0454664
-0.0429421
-0.0405714
-0.0383465
-0.0362595
-0.0343025
-0.0324676
-0.0307471
-0.0291337
-0.0276202
-0.0261998
-0.0248661
-0.0236132
-0.0224353
-0.0213271
-0.0202837
-0.0193005
-0.0183732
-0.0174979
-0.0166708
-0.0158886
-0.0151481
-0.0144464
-0.0137809
-0.0131491
-0.0125486
-0.0119774
-0.0114335
-0.0109152
-0.0104209
-0.00994891
-0.00949795
-0.00906673
-0.00865404
-0.00825881
-0.00788001
-0.00751672
-0.00716808
-0.0068333
-0.00651163
-0.00620241
-0.00590499
-0.00561881
-0.0053433
-0.00507798
-0.00482238
-0.00457605
-0.00433859
-0.00410963
-0.00388881
-0.0036758
-0.0034703
-0.003272
-0.00308064
-0.00289598
-0.00271776
-0.00254577
-0.0023798
-0.00221966
-0.00206516
-0.00191612
-0.0017724
-0.00163384
-0.00150031
-0.00137166
-0.00124778
-0.00112856
-0.00101389
-0.000903659
-0.000797786
-0.000696188
-0.000598806
-0.00050562
-0.000416658
-0.000332071
-0.000252989
-0.000183937
-0.000116416
-0.154317
-0.155115
-0.155897
-0.156726
-0.157522
-0.158222
-0.15882
-0.159304
-0.159635
-0.159756
-0.159614
-0.159163
-0.158362
-0.157166
-0.155539
-0.153457
-0.150913
-0.147923
-0.144524
-0.14076
-0.136685
-0.13235
-0.127808
-0.123109
-0.118302
-0.113435
-0.108549
-0.103686
-0.09888
-0.0941591
-0.0895476
-0.0850649
-0.0807259
-0.0765422
-0.0725223
-0.0686718
-0.0649941
-0.0614905
-0.0581603
-0.0550015
-0.0520106
-0.0491832
-0.0465142
-0.0439975
-0.0416268
-0.0393954
-0.0372963
-0.0353224
-0.0334666
-0.0317222
-0.0300822
-0.0285402
-0.0270898
-0.0257252
-0.0244407
-0.0232308
-0.0220906
-0.0210154
-0.0200007
-0.0190424
-0.0181367
-0.0172801
-0.0164691
-0.0157008
-0.0149721
-0.0142806
-0.0136238
-0.0129993
-0.012405
-0.0118391
-0.0112997
-0.0107852
-0.010294
-0.00982474
-0.00937607
-0.00894678
-0.00853577
-0.00814199
-0.00776448
-0.00740235
-0.00705478
-0.00672099
-0.00640029
-0.00609202
-0.00579555
-0.00551033
-0.00523582
-0.00497152
-0.00471699
-0.00447177
-0.00423548
-0.00400773
-0.00378818
-0.00357648
-0.00337232
-0.00317542
-0.00298551
-0.00280231
-0.0026256
-0.00245515
-0.00229073
-0.00213216
-0.00197925
-0.00183183
-0.00168972
-0.0015528
-0.00142092
-0.00129396
-0.00117184
-0.00105446
-0.000941776
-0.000833777
-0.000730502
-0.00063207
-0.000538722
-0.000450853
-0.0003691
-0.000295545
-0.000237583
-0.000180255
-0.153775
-0.154452
-0.155136
-0.155821
-0.156453
-0.156977
-0.157368
-0.157607
-0.157668
-0.157515
-0.157113
-0.156429
-0.155429
-0.154081
-0.152355
-0.150235
-0.147718
-0.144817
-0.141561
-0.137985
-0.134132
-0.130043
-0.125764
-0.121337
-0.116804
-0.112208
-0.107586
-0.102976
-0.0984076
-0.0939087
-0.0895019
-0.0852056
-0.0810348
-0.0770012
-0.0731137
-0.0693786
-0.0658002
-0.0623807
-0.0591205
-0.0560185
-0.0530724
-0.0502786
-0.047633
-0.0451307
-0.0427663
-0.0405338
-0.0384273
-0.0364405
-0.0345673
-0.0328013
-0.0311366
-0.0295672
-0.0280874
-0.0266916
-0.0253747
-0.0241316
-0.0229576
-0.0218484
-0.0207997
-0.0198076
-0.0188685
-0.017979
-0.0171359
-0.0163361
-0.015577
-0.0148559
-0.0141704
-0.0135183
-0.0128975
-0.012306
-0.0117422
-0.0112043
-0.0106908
-0.0102002
-0.00973124
-0.00928265
-0.00885327
-0.00844205
-0.00804799
-0.00767017
-0.00730772
-0.00695986
-0.00662582
-0.00630493
-0.00599654
-0.00570004
-0.00541487
-0.0051405
-0.00487645
-0.00462224
-0.00437746
-0.00414168
-0.00391453
-0.00369566
-0.00348472
-0.0032814
-0.00308539
-0.00289643
-0.00271425
-0.00253859
-0.00236924
-0.00220596
-0.00204855
-0.00189683
-0.00175062
-0.00160977
-0.00147413
-0.0013436
-0.00121808
-0.00109752
-0.000981903
-0.00087129
-0.000765818
-0.000665756
-0.000571557
-0.000483909
-0.000403844
-0.000334094
-0.000283999
-0.000235132
-0.153077
-0.153572
-0.154056
-0.154508
-0.154899
-0.155194
-0.155366
-0.155391
-0.155247
-0.154904
-0.154335
-0.153509
-0.152393
-0.150962
-0.149193
-0.147077
-0.144614
-0.141815
-0.138703
-0.135306
-0.131659
-0.127796
-0.123757
-0.119578
-0.115298
-0.110953
-0.106579
-0.102206
-0.0978647
-0.0935789
-0.08937
-0.0852559
-0.081251
-0.0773672
-0.0736134
-0.0699965
-0.0665214
-0.0631909
-0.0600061
-0.056967
-0.0540719
-0.0513185
-0.0487032
-0.0462222
-0.0438709
-0.0416442
-0.0395371
-0.037544
-0.0356596
-0.0338782
-0.0321945
-0.030603
-0.0290987
-0.0276763
-0.0263313
-0.0250588
-0.0238546
-0.0227144
-0.0216345
-0.020611
-0.0196406
-0.0187199
-0.0178459
-0.0170158
-0.0162269
-0.0154766
-0.0147626
-0.0140828
-0.0134351
-0.0128177
-0.0122287
-0.0116665
-0.0111296
-0.0106165
-0.010126
-0.00965669
-0.00920752
-0.00877737
-0.00836524
-0.00797018
-0.00759132
-0.00722784
-0.00687896
-0.00654397
-0.00622219
-0.005913
-0.0056158
-0.00533004
-0.0050552
-0.00479079
-0.00453634
-0.00429143
-0.00405564
-0.00382859
-0.00360991
-0.00339926
-0.00319632
-0.00300078
-0.00281235
-0.00263076
-0.00245576
-0.00228711
-0.00212458
-0.00196797
-0.00181708
-0.00167174
-0.0015318
-0.00139715
-0.0012677
-0.00114341
-0.00102428
-0.000910421
-0.000802032
-0.000699475
-0.000603332
-0.000514477
-0.000434175
-0.000365456
-0.000318507
-0.000274333
-0.152322
-0.152659
-0.152976
-0.153251
-0.153461
-0.153576
-0.153569
-0.153417
-0.153099
-0.152591
-0.151867
-0.150901
-0.149668
-0.148148
-0.146329
-0.144204
-0.141776
-0.139056
-0.13606
-0.132811
-0.129338
-0.12567
-0.121841
-0.117884
-0.113831
-0.109715
-0.105568
-0.101416
-0.0972864
-0.0932011
-0.0891801
-0.08524
-0.0813949
-0.0776563
-0.0740334
-0.0705333
-0.067161
-0.0639199
-0.0608119
-0.0578375
-0.0549958
-0.0522853
-0.0497035
-0.047247
-0.0449122
-0.0426949
-0.0405907
-0.038595
-0.0367029
-0.0349096
-0.0332102
-0.0316001
-0.0300744
-0.0286287
-0.0272584
-0.0259595
-0.0247278
-0.0235594
-0.0224508
-0.0213984
-0.0203989
-0.0194494
-0.0185468
-0.0176884
-0.0168716
-0.0160941
-0.0153535
-0.0146478
-0.0139749
-0.013333
-0.0127203
-0.0121351
-0.0115761
-0.0110417
-0.0105306
-0.0100415
-0.00957335
-0.00912496
-0.00869533
-0.0082835
-0.00788858
-0.00750973
-0.00714616
-0.00679714
-0.00646196
-0.00613999
-0.0058306
-0.00553323
-0.00524733
-0.00497238
-0.00470791
-0.00445346
-0.0042086
-0.00397291
-0.00374602
-0.00352756
-0.00331718
-0.00311456
-0.0029194
-0.00273139
-0.00255025
-0.00237574
-0.00220761
-0.00204561
-0.00188956
-0.00173925
-0.00159454
-0.00145528
-0.00132138
-0.0011928
-0.00106956
-0.000951753
-0.000839609
-0.000733512
-0.000634079
-0.000542221
-0.000459236
-0.00038805
-0.000338556
-0.00029302
-0.15154
-0.151733
-0.151896
-0.152008
-0.152047
-0.15199
-0.151813
-0.151497
-0.151021
-0.150364
-0.149503
-0.148418
-0.14709
-0.145505
-0.143655
-0.141536
-0.13915
-0.136506
-0.133617
-0.130504
-0.127188
-0.123697
-0.120059
-0.116304
-0.112459
-0.108554
-0.104614
-0.100666
-0.0967326
-0.0928336
-0.0889878
-0.0852109
-0.0815163
-0.0779152
-0.0744167
-0.0710279
-0.0677541
-0.0645991
-0.0615654
-0.0586538
-0.0558644
-0.0531963
-0.0506477
-0.0482161
-0.0458985
-0.0436916
-0.0415917
-0.0395947
-0.0376966
-0.0358932
-0.0341801
-0.0325531
-0.031008
-0.0295407
-0.0281471
-0.0268235
-0.025566
-0.0243712
-0.0232355
-0.0221558
-0.0211289
-0.020152
-0.0192222
-0.0183369
-0.0174937
-0.0166902
-0.0159243
-0.0151938
-0.0144969
-0.0138316
-0.0131963
-0.0125893
-0.0120092
-0.0114545
-0.0109238
-0.010416
-0.00992975
-0.00946406
-0.00901784
-0.00859014
-0.00818003
-0.00778665
-0.0074092
-0.00704692
-0.00669909
-0.00636503
-0.00604413
-0.00573577
-0.00543939
-0.00515447
-0.00488048
-0.00461696
-0.00436344
-0.0041195
-0.00388473
-0.00365876
-0.0034412
-0.00323172
-0.00303
-0.00283571
-0.00264856
-0.00246827
-0.00229458
-0.00212723
-0.00196599
-0.00181067
-0.00166108
-0.00151707
-0.00137853
-0.0012454
-0.00111767
-0.000995424
-0.000878858
-0.000768313
-0.000664338
-0.000567746
-0.000479669
-0.000402578
-0.000345099
-0.000291357
-0.150753
-0.15082
-0.150847
-0.150817
-0.150711
-0.150508
-0.150189
-0.149734
-0.149126
-0.148344
-0.147372
-0.146193
-0.144792
-0.143161
-0.141292
-0.139182
-0.136836
-0.13426
-0.131465
-0.12847
-0.125293
-0.121959
-0.118491
-0.114914
-0.111255
-0.107536
-0.103783
-0.100017
-0.0962583
-0.0925267
-0.0888388
-0.0852093
-0.081651
-0.0781746
-0.0747892
-0.0715017
-0.0683177
-0.0652413
-0.0622754
-0.0594214
-0.05668
-0.0540509
-0.0515328
-0.0491242
-0.0468227
-0.0446256
-0.0425298
-0.040532
-0.0386286
-0.0368159
-0.0350902
-0.0334478
-0.0318849
-0.0303977
-0.0289827
-0.0276362
-0.0263549
-0.0251354
-0.0239746
-0.0228695
-0.021817
-0.0208145
-0.0198593
-0.018949
-0.018081
-0.0172532
-0.0164635
-0.0157098
-0.0149903
-0.0143031
-0.0136466
-0.0130191
-0.0124192
-0.0118453
-0.0112963
-0.0107708
-0.0102676
-0.00978567
-0.00932387
-0.00888123
-0.00845685
-0.00804983
-0.00765935
-0.00728464
-0.00692496
-0.00657961
-0.00624794
-0.00592932
-0.00562317
-0.00532895
-0.00504612
-0.00477417
-0.00451262
-0.00426103
-0.00401897
-0.00378603
-0.00356183
-0.00334601
-0.00313822
-0.00293813
-0.00274541
-0.00255977
-0.0023809
-0.00220855
-0.00204246
-0.0018824
-0.00172817
-0.00157961
-0.00143655
-0.00129893
-0.00116667
-0.00103982
-0.000918486
-0.000802927
-0.000693547
-0.000590953
-0.000495978
-0.000410457
-0.000341219
-0.000274302
-0.149986
-0.149944
-0.149857
-0.149707
-0.149479
-0.149154
-0.148714
-0.148144
-0.147426
-0.146544
-0.145483
-0.144232
-0.142778
-0.141114
-0.139235
-0.13714
-0.134832
-0.132317
-0.129607
-0.126716
-0.123661
-0.120463
-0.117143
-0.113722
-0.110222
-0.106666
-0.103073
-0.0994643
-0.0958583
-0.0922725
-0.0887224
-0.0852219
-0.0817832
-0.0784165
-0.0751306
-0.0719327
-0.0688283
-0.0658217
-0.0629163
-0.0601138
-0.0574155
-0.0548216
-0.0523314
-0.0499439
-0.0476574
-0.0454696
-0.0433781
-0.04138
-0.0394723
-0.0376519
-0.0359154
-0.0342595
-0.0326809
-0.0311761
-0.029742
-0.0283752
-0.0270725
-0.025831
-0.0246476
-0.0235195
-0.022444
-0.0214184
-0.0204402
-0.0195071
-0.0186166
-0.0177668
-0.0169555
-0.0161807
-0.0154406
-0.0147335
-0.0140576
-0.0134114
-0.0127934
-0.0122022
-0.0116364
-0.0110948
-0.0105761
-0.0100793
-0.00960331
-0.00914706
-0.00870964
-0.00829017
-0.00788782
-0.00750178
-0.0071313
-0.00677566
-0.00643419
-0.00610626
-0.00579125
-0.0054886
-0.00519776
-0.00491819
-0.0046494
-0.00439091
-0.00414226
-0.00390306
-0.00367289
-0.00345138
-0.00323816
-0.00303287
-0.00283517
-0.00264474
-0.00246126
-0.00228442
-0.00211396
-0.00194963
-0.00179119
-0.00163845
-0.00149122
-0.00134936
-0.00121278
-0.00108141
-0.000955291
-0.000834518
-0.000719328
-0.000610078
-0.000507255
-0.000412067
-0.000329611
-0.000247754
-0.14926
-0.149128
-0.148944
-0.148696
-0.148366
-0.14794
-0.147402
-0.146737
-0.14593
-0.144968
-0.143839
-0.142531
-0.141036
-0.139349
-0.137464
-0.135384
-0.133109
-0.130648
-0.12801
-0.125208
-0.122256
-0.119173
-0.115977
-0.112687
-0.109322
-0.105902
-0.102445
-0.0989707
-0.0954951
-0.0920344
-0.0886032
-0.0852145
-0.0818797
-0.0786088
-0.0754103
-0.0722912
-0.0692572
-0.0663128
-0.0634614
-0.0607054
-0.0580462
-0.0554846
-0.0530203
-0.0506528
-0.0483808
-0.0462025
-0.044116
-0.042119
-0.0402087
-0.0383825
-0.0366375
-0.0349706
-0.033379
-0.0318595
-0.0304091
-0.0290249
-0.027704
-0.0264435
-0.0252406
-0.0240926
-0.022997
-0.0219513
-0.020953
-0.0199999
-0.0190898
-0.0182206
-0.0173903
-0.016597
-0.0158388
-0.0151141
-0.0144212
-0.0137585
-0.0131245
-0.0125179
-0.0119373
-0.0113814
-0.0108491
-0.0103391
-0.00985046
-0.00938212
-0.00893312
-0.00850259
-0.00808968
-0.00769358
-0.00731351
-0.00694872
-0.00659853
-0.00626229
-0.00593939
-0.00562924
-0.00533129
-0.00504496
-0.00476972
-0.00450508
-0.00425058
-0.0040058
-0.00377032
-0.00354376
-0.00332572
-0.00311583
-0.00291373
-0.00271907
-0.0025315
-0.00235069
-0.00217635
-0.0020082
-0.001846
-0.0016895
-0.00153848
-0.00139275
-0.00125213
-0.0011165
-0.000985773
-0.0008599
-0.000738896
-0.000622869
-0.000511995
-0.000406963
-0.000311511
-0.0002155
-0.148593
-0.148387
-0.148126
-0.147796
-0.147384
-0.146876
-0.146258
-0.145517
-0.144639
-0.143612
-0.142427
-0.141075
-0.139548
-0.137842
-0.135954
-0.133886
-0.131641
-0.129224
-0.126646
-0.123917
-0.12105
-0.118062
-0.114969
-0.111787
-0.108534
-0.105228
-0.101886
-0.0985245
-0.0951592
-0.0918049
-0.088475
-0.0851819
-0.0819364
-0.078748
-0.075625
-0.0725743
-0.0696017
-0.0667118
-0.0639081
-0.0611933
-0.0585691
-0.0560366
-0.053596
-0.0512469
-0.0489887
-0.0468199
-0.044739
-0.042744
-0.0408326
-0.0390025
-0.0372511
-0.0355758
-0.0339738
-0.0324425
-0.0309789
-0.0295805
-0.0282445
-0.0269681
-0.025749
-0.0245844
-0.0234719
-0.0224092
-0.021394
-0.0204241
-0.0194974
-0.0186117
-0.0177653
-0.0169562
-0.0161826
-0.0154429
-0.0147355
-0.0140587
-0.0134112
-0.0127914
-0.0121982
-0.0116301
-0.011086
-0.0105647
-0.0100652
-0.00958645
-0.00912748
-0.00868742
-0.00826541
-0.00786063
-0.00747227
-0.00709955
-0.00674177
-0.0063983
-0.00606854
-0.00575189
-0.00544776
-0.00515555
-0.0048747
-0.00460468
-0.00434503
-0.00409534
-0.00385518
-0.00362415
-0.00340185
-0.0031879
-0.00298191
-0.00278352
-0.00259234
-0.00240802
-0.00223023
-0.00205869
-0.00189311
-0.00173322
-0.00157876
-0.00142946
-0.00128513
-0.00114553
-0.00101045
-0.000879701
-0.000753131
-0.000630592
-0.000511932
-0.000397345
-0.000289334
-0.000179901
-0.148033
-0.147765
-0.147441
-0.147046
-0.146569
-0.145996
-0.145313
-0.14451
-0.143575
-0.142497
-0.141268
-0.13988
-0.138327
-0.136607
-0.134718
-0.132661
-0.130439
-0.128059
-0.125528
-0.122858
-0.12006
-0.117148
-0.114137
-0.111043
-0.107881
-0.104668
-0.101419
-0.09815
-0.0948749
-0.0916077
-0.0883611
-0.0851467
-0.0819748
-0.0788547
-0.0757944
-0.0728006
-0.0698793
-0.0670349
-0.0642713
-0.0615912
-0.0589966
-0.0564889
-0.0540685
-0.0517355
-0.0494894
-0.0473291
-0.0452534
-0.0432607
-0.041349
-0.0395162
-0.03776
-0.0360781
-0.0344681
-0.0329273
-0.0314532
-0.0300433
-0.028695
-0.0274059
-0.0261735
-0.0249953
-0.0238691
-0.0227926
-0.0217635
-0.0207798
-0.0198393
-0.0189402
-0.0180805
-0.0172584
-0.0164722
-0.0157202
-0.0150007
-0.0143124
-0.0136536
-0.013023
-0.0124193
-0.0118411
-0.0112873
-0.0107566
-0.0102481
-0.00976066
-0.0092933
-0.00884522
-0.00841558
-0.00800356
-0.00760827
-0.00722889
-0.0068647
-0.00651509
-0.0061795
-0.00585732
-0.00554796
-0.0052508
-0.00496521
-0.00469061
-0.00442656
-0.00417264
-0.00392841
-0.00369347
-0.00346739
-0.00324977
-0.00304023
-0.00283844
-0.00264403
-0.00245664
-0.00227591
-0.00210148
-0.00193302
-0.00177021
-0.00161274
-0.00146033
-0.00131267
-0.00116945
-0.00103039
-0.00089518