/*--------------------------------*- C++ -*----------------------------------*\
| =========                 |                                                 |
| \\      /  F ield         | OpenFOAM: The Open Source CFD Toolbox           |
|  \\    /   O peration     | Version:  4.0                                   |
|   \\  /    A nd           | Web:      www.OpenFOAM.org                      |
|    \\/     M anipulation  |                                                 |
\*---------------------------------------------------------------------------*/
FoamFile
{
    version     2.0;
    format      ascii;
    class       surfaceScalarField;
    location    "85";
    object      phi;
}
// * * * * * * * * * * * * * * * * * * * * * * * * * * * * * * * * * * * * * //

dimensions      [0 3 -1 0 0 0 0];

internalField   nonuniform List<scalar> 
6112
(
0.148032
-0.00115376
0.149041
-0.0010096
0.149936
-0.000894824
0.150769
-0.000832747
0.151546
-0.00077743
0.152267
-0.000720856
0.152935
-0.000667722
0.153556
-0.000621063
0.154137
-0.000581422
0.154685
-0.000548293
0.155206
-0.000520518
0.155702
-0.000495607
0.156169
-0.00046768
0.156591
-0.000421877
0.156912
-0.000321298
-0.000385578
0.157298
0.196462
-0.000134266
0.195769
-0.000316057
0.19524
-0.000366192
0.194794
-0.000387146
0.19442
-0.000403098
0.194112
-0.00041284
0.193863
-0.000418521
0.193665
-0.000423833
0.193515
-0.000431174
0.193409
-0.000441706
0.193344
-0.000455888
0.193322
-0.000473647
0.193349
-0.000494409
0.193445
-0.00051794
0.193676
-0.000552187
-0.000647892
0.193938
0.213486
-4.5038e-05
0.213324
-0.000154143
0.21318
-0.000221699
0.213049
-0.000255839
0.212927
-0.000281254
0.212818
-0.000303987
0.212724
-0.000325141
0.212648
-0.000346995
0.212588
-0.00037197
0.212549
-0.000401801
0.21253
-0.00043776
0.212538
-0.000481123
0.212577
-0.000533731
0.212658
-0.000599202
0.212792
-0.000685858
-0.000810612
0.212955
0.224676
-0.000100647
0.224709
-0.000186904
0.224735
-0.00024852
0.224765
-0.000285396
0.224795
-0.000311266
0.224825
-0.000333836
0.224856
-0.000356142
0.224889
-0.000380761
0.224928
-0.000410243
0.224973
-0.000446706
0.225027
-0.000491992
0.225094
-0.000548125
0.225178
-0.000617855
0.225284
-0.000705398
0.225416
-0.000817442
-0.000963732
0.225569
0.23434
-0.000132902
0.234369
-0.000216406
0.234382
-0.000261807
0.234387
-0.00029035
0.234388
-0.000311853
0.234386
-0.000331573
0.234383
-0.000353161
0.234381
-0.000379439
0.234384
-0.000412719
0.234392
-0.000454987
0.234408
-0.000508161
0.234435
-0.00057442
0.234473
-0.000656584
0.234526
-0.000758496
0.234594
-0.000885347
-0.00104357
0.234674
0.241497
-0.000173197
0.241522
-0.000241797
0.241523
-0.00026244
0.241504
-0.000272248
0.241472
-0.0002796
0.241429
-0.00028858
0.241379
-0.000303002
0.241325
-0.000325588
0.241271
-0.000358204
0.241218
-0.000402401
0.24117
-0.000459772
0.241127
-0.000532199
0.241093
-0.000622084
0.241067
-0.00073254
0.241049
-0.000867464
-0.00103133
0.241037
0.247065
-0.000112761
0.246936
-0.000112553
0.246771
-9.82766e-05
0.246591
-9.14741e-05
0.246403
-9.23296e-05
0.246217
-0.000101813
0.246035
-0.000121327
0.245861
-0.000151847
0.245697
-0.000194123
0.245544
-0.000248971
0.245401
-0.00031748
0.24527
-0.000401117
0.24515
-0.000501832
0.24504
-0.00062211
0.244937
-0.000764936
-0.000933615
0.244839
0.249351
6.44172e-05
0.249134
0.000105326
0.248906
0.000129232
0.248673
0.00014169
0.24844
0.000140679
0.248212
0.000125851
0.247993
9.7828e-05
0.247784
5.70883e-05
0.247586
3.74926e-06
0.2474
-6.239e-05
0.247224
-0.000141919
0.247059
-0.000235859
0.246903
-0.000345699
0.246754
-0.000473375
0.24661
-0.000621176
-0.000791601
0.246468
0.24919
0.000218519
0.249
0.000295381
0.248795
0.000333885
0.248581
0.00035527
0.248365
0.000356736
0.248152
0.000339173
0.247945
0.000305342
0.247745
0.000257122
0.247553
0.000195535
0.247369
0.000121129
0.247193
3.40512e-05
0.247024
-6.62173e-05
0.246859
-0.000180907
0.246697
-0.000311492
0.246535
-0.000459626
-0.000627205
0.246371
0.246185
0.000192129
0.246152
0.000327983
0.246071
0.000415331
0.24596
0.000466213
0.245831
0.000485441
0.245692
0.00047853
0.245547
0.000450365
0.2454
0.000404319
0.245252
0.000342827
0.245106
0.000267629
0.24496
0.000179715
0.244814
7.94936e-05
0.244667
-3.31844e-05
0.244515
-0.000159489
0.244356
-0.000300962
-0.000458941
0.244188
0.239908
0.000112519
0.239948
0.000288305
0.239946
0.000417081
0.239921
0.000491215
0.239881
0.000524796
0.239831
0.000529058
0.239772
0.000509544
0.239706
0.000470112
0.239634
0.000414323
0.239557
0.000344889
0.239474
0.000263407
0.239382
0.000170608
0.239282
6.68718e-05
0.239171
-4.77984e-05
0.239044
-0.000174648
-0.000315145
0.238901
0.232667
0.000200354
0.232545
0.000410132
0.232399
0.000563056
0.232249
0.000641442
0.232101
0.000672216
0.231958
0.000672097
0.231821
0.000646835
0.23169
0.000601361
0.231563
0.000540758
0.23144
0.000468641
0.231316
0.000386977
0.23119
0.000296653
0.231059
0.000197895
0.23092
9.08618e-05
0.23077
-2.39541e-05
-0.000147608
0.230602
0.222703
0.000310122
0.222481
0.000631387
0.222239
0.000805656
0.222007
0.000873231
0.221784
0.000895109
0.22157
0.000886302
0.221366
0.000851171
0.22117
0.000796952
0.22098
0.000730283
0.220794
0.000655091
0.220608
0.000573305
0.220418
0.000485797
0.220224
0.000392796
0.22002
0.000294057
0.219807
0.000189191
7.86915e-05
0.219581
0.210073
0.00047144
0.20963
0.00107443
0.209183
0.00125258
0.208746
0.00131034
0.208316
0.00132519
0.207904
0.00129796
0.207517
0.00123856
0.207153
0.00116099
0.206809
0.00107425
0.206481
0.000982647
0.206167
0.000888247
0.20586
0.000792045
0.205559
0.000694367
0.205258
0.00059503
0.204953
0.000493531
0.000389218
0.204643
0.19095
0.00258264
0.189457
0.00256804
0.188309
0.00239988
0.187333
0.00228665
0.186505
0.00215322
0.185815
0.00198796
0.185243
0.00181091
0.184766
0.00163748
0.184367
0.00147389
0.184028
0.00132164
0.183735
0.00118057
0.183477
0.0010499
0.183243
0.000928475
0.183023
0.000814941
0.182809
0.000707878
0.000605912
0.182592
0.119671
0.122239
0.124639
0.126926
0.129079
0.131067
0.132878
0.134515
0.135989
0.137311
0.138491
0.139541
0.14047
0.141285
0.141993
0.142598
-0.00642692
0.00642692
-0.0129661
0.00653912
-0.0188608
0.00589469
-0.0241721
0.00531121
-0.0289926
0.00482048
-0.0333895
0.00439687
-0.0374147
0.00402519
-0.0411105
0.00369576
-0.0445051
0.00339465
-0.0476052
0.00310007
-0.0503977
0.0027926
-0.0528535
0.0024558
-0.0549295
0.00207601
-0.0565731
0.00164363
-0.0577301
0.00115707
-0.0583557
0.000625526
-0.0584257
6.99947e-05
-0.0579609
-0.000464761
-0.0570207
-0.000940249
-0.0556659
-0.00135478
-0.0539502
-0.00171569
-0.0519206
-0.0020296
-0.0496185
-0.00230207
-0.0470854
-0.00253299
-0.0443624
-0.00272305
-0.0414864
-0.00287594
-0.0384906
-0.00299579
-0.0354044
-0.00308614
-0.0322528
-0.00315154
-0.0290513
-0.00320144
-0.0258157
-0.00323564
-0.022568
-0.00324767
-0.0193294
-0.00323858
-0.0161196
-0.00320977
-0.0129414
-0.00317815
-0.00979153
-0.00314986
-0.00668187
-0.00310967
-0.0036195
-0.00306239
-0.000610871
-0.00300867
0.00232572
-0.00293664
0.00517386
-0.00284818
0.00792249
-0.00274866
0.0105737
-0.00265122
0.0131317
-0.00255801
0.0156002
-0.00246853
0.0179826
-0.00238244
0.020282
-0.00229943
0.0225012
-0.00221926
0.0246429
-0.00214173
0.0267096
-0.00206671
0.0287037
-0.00199412
0.0306276
-0.00192391
0.0324837
-0.00185605
0.0342742
-0.00179051
0.0360015
-0.00172728
0.0376678
-0.00166632
0.0392754
-0.0016076
0.0408265
-0.00155109
0.0423232
-0.00149672
0.0437677
-0.00144447
0.0451619
-0.00139427
0.046508
-0.00134606
0.0478078
-0.0012998
0.0490632
-0.00125541
0.050276
-0.00121283
0.051448
-0.00117201
0.0525809
-0.00113287
0.0536763
-0.00109536
0.0547357
-0.00105941
0.0557607
-0.00102496
0.0567526
-0.000991949
0.0577129
-0.000960315
0.0586429
-0.000930002
0.0595439
-0.000900952
0.060417
-0.00087311
0.0612634
-0.000846423
0.0620842
-0.00082084
0.0628806
-0.000796313
0.0636533
-0.000772792
0.0644036
-0.000750233
0.0651322
-0.000728592
0.06584
-0.000707827
0.0665279
-0.000687898
0.0671966
-0.000668768
0.067847
-0.0006504
0.0684798
-0.00063276
0.0690956
-0.000615815
0.0696951
-0.000599533
0.070279
-0.000583885
0.0708478
-0.000568843
0.0714022
-0.000554381
0.0719427
-0.000540474
0.0724698
-0.000527097
0.072984
-0.00051423
0.0734858
-0.000501849
0.0739758
-0.000489937
0.0744542
-0.000478474
0.0749217
-0.000467443
0.0753785
-0.000456828
0.0758251
-0.000446613
0.0762619
-0.000436786
0.0766892
-0.000427332
0.0771074
-0.000418242
0.0775169
-0.000409506
0.077918
-0.000401115
0.0783111
-0.000393066
0.0786965
-0.000385357
0.0790744
-0.000377993
0.0794454
-0.000370986
0.0798098
-0.000364363
0.0801679
-0.000358174
0.0805204
-0.000352504
0.0808679
-0.000347502
0.0812114
-0.000343434
0.0815521
-0.000340772
0.0818925
-0.00034038
0.0822364
-0.000343895
0.0825915
-0.000355031
0.0829747
-0.000383174
-0.000425398
-0.00556684
0.0119937
-0.0106421
0.0116143
-0.0152425
0.010495
-0.0193589
0.00942753
-0.0230448
0.00850633
-0.0263661
0.00771807
-0.0293803
0.0070394
-0.0321289
0.00644444
-0.0346353
0.00590103
-0.0369061
0.00537089
-0.0389315
0.00481804
-0.040686
0.00421035
-0.0421294
0.00351949
-0.0432085
0.00272271
-0.0438648
0.00181337
-0.0440501
0.00081089
-0.043745
-0.000235116
-0.0429785
-0.00123127
-0.0418035
-0.00211526
-0.0402675
-0.00289072
-0.0384156
-0.00356757
-0.0362893
-0.0041559
-0.0339238
-0.00466754
-0.031356
-0.00510067
-0.0286222
-0.00545684
-0.0257546
-0.00574346
-0.0227819
-0.00596844
-0.0197297
-0.00613832
-0.0166229
-0.00625832
-0.0134798
-0.00634445
-0.0103165
-0.00639888
-0.00714989
-0.00641429
-0.00398951
-0.00639894
-0.000835525
-0.00636373
0.00228499
-0.00629866
0.00533761
-0.00620249
0.00832116
-0.00609324
0.0112371
-0.0059784
0.0140889
-0.00586043
0.0168739
-0.00572171
0.0195826
-0.00555695
0.022217
-0.00538304
0.0247742
-0.00520843
0.0272527
-0.00503653
0.0296527
-0.00486859
0.0319752
-0.00470499
0.0342216
-0.00454582
0.0363934
-0.00439109
0.0384924
-0.00424077
0.0405205
-0.00409486
0.0424798
-0.00395337
0.0443722
-0.0038163
0.0461998
-0.00368366
0.0479647
-0.00355544
0.049669
-0.00343162
0.0513149
-0.00331217
0.0529043
-0.00319704
0.0544394
-0.00308615
0.0559221
-0.00297945
0.0573545
-0.00287683
0.0587384
-0.00277819
0.0600758
-0.00268344
0.0613685
-0.00259247
0.0626182
-0.00250515
0.0638267
-0.00242136
0.0649957
-0.002341
0.0661268
-0.00226393
0.0672215
-0.00219004
0.0682812
-0.0021192
0.0693076
-0.00205129
0.0703018
-0.00198621
0.0712653
-0.00192382
0.0721994
-0.00186403
0.0731051
-0.00180671
0.0739838
-0.00175177
0.0748364
-0.0016991
0.0756642
-0.0016486
0.076468
-0.00160018
0.077249
-0.00155374
0.0780079
-0.0015092
0.0787458
-0.00146647
0.0794635
-0.00142547
0.0801617
-0.00138613
0.0808413
-0.00134836
0.0815029
-0.0013121
0.0821475
-0.00127728
0.0827755
-0.00124384
0.0833876
-0.00121172
0.0839846
-0.00118085
0.0845669
-0.00115118
0.0851352
-0.00112267
0.08569
-0.00109526
0.0862318
-0.00106891
0.0867611
-0.00104357
0.0872785
-0.0010192
0.0877843
-0.000995756
0.088279
-0.000973211
0.0887631
-0.000951528
0.0892369
-0.000930673
0.0897009
-0.000910617
0.0901554
-0.000891332
0.0906009
-0.000872793
0.0910376
-0.000854977
0.091466
-0.000837864
0.0918863
-0.00082144
0.0922989
-0.000805691
0.0927042
-0.000790613
0.0931024
-0.000776211
0.0934939
-0.000762503
0.093879
-0.000749529
0.0942582
-0.000737364
0.0946318
-0.000726139
0.0950004
-0.000716079
0.0953645
-0.000707564
0.095725
-0.000701245
0.0960829
-0.000698219
0.0964394
-0.00070038
0.0967957
-0.000711391
0.0971505
-0.000737932
-0.000768655
-0.00407499
0.0160687
-0.00774712
0.0152864
-0.0109608
0.0137086
-0.0137806
0.0122473
-0.0162718
0.0109974
-0.0184913
0.00993758
-0.0204835
0.00903154
-0.0222792
0.00824021
-0.0238971
0.00751891
-0.02534
0.00681382
-0.0265971
0.0060752
-0.0276443
0.00525755
-0.0284434
0.0043186
-0.0289384
0.00321775
-0.0290638
0.00193881
-0.0287601
0.000507106
-0.0280317
-0.000963468
-0.0269328
-0.00233025
-0.0255037
-0.00354438
-0.0237825
-0.00461191
-0.0218054
-0.00554457
-0.0196084
-0.00635296
-0.0172196
-0.00705624
-0.0146729
-0.00764736
-0.0119982
-0.00813153
-0.00922092
-0.0085207
-0.00636292
-0.00882642
-0.00344127
-0.00905995
-0.000467522
-0.00923205
0.00252645
-0.00933841
0.00550785
-0.00938026
0.00846926
-0.00937568
0.011404
-0.0093337
0.0143006
-0.00926031
0.0171541
-0.00915216
0.0199619
-0.00901027
0.0227153
-0.00884669
0.0254066
-0.00866971
0.0280284
-0.00848219
0.0305835
-0.00827681
0.0330778
-0.00805134
0.0355099
-0.0078151
0.0378766
-0.00757511
0.0401755
-0.00733541
0.0424052
-0.00709832
0.0445654
-0.00686521
0.0466565
-0.0066369
0.0486793
-0.00641391
0.0506351
-0.00619659
0.0525254
-0.00598518
0.0543519
-0.00577987
0.0561164
-0.00558077
0.0578207
-0.00538796
0.0594667
-0.00520148
0.0610564
-0.00502133
0.0625917
-0.00484747
0.0640745
-0.00467985
0.0655068
-0.00451839
0.0668903
-0.00436298
0.068227
-0.00421349
0.0695186
-0.00406979
0.0707669
-0.00393173
0.0719735
-0.00379914
0.0731403
-0.00367188
0.0742687
-0.00354975
0.0753603
-0.0034326
0.0764166
-0.00332024
0.077439
-0.00321251
0.0784291
-0.00310922
0.079388
-0.00301021
0.0803171
-0.0029153
0.0812176
-0.00282433
0.0820907
-0.00273713
0.0829375
-0.00265356
0.0837592
-0.00257345
0.0845567
-0.00249665
0.0853311
-0.00242303
0.0860834
-0.00235244
0.0868144
-0.00228475
0.087525
-0.00221984
0.0882161
-0.00215757
0.0888885
-0.00209783
0.0895429
-0.00204052
0.09018
-0.00198552
0.0908006
-0.00193272
0.0914054
-0.00188204
0.0919949
-0.00183337
0.0925698
-0.00178664
0.0931307
-0.00174175
0.0936781
-0.00169863
0.0942126
-0.00165719
0.0947347
-0.00161738
0.0952449
-0.00157912
0.0957437
-0.00154234
0.0962315
-0.00150699
0.0967087
-0.00147301
0.0971759
-0.00144034
0.0976333
-0.00140894
0.0980813
-0.00137875
0.0985204
-0.00134974
0.098951
-0.00132186
0.0993732
-0.00129508
0.0997876
-0.00126935
0.100194
-0.00124466
0.100594
-0.00122097
0.100986
-0.00119827
0.101372
-0.00117655
0.101752
-0.00115579
0.102126
-0.00113603
0.102493
-0.00111729
0.102856
-0.00109966
0.103213
-0.00108326
0.103565
-0.00106832
0.103913
-0.00105521
0.104256
-0.0010445
0.104595
-0.0010371
0.104929
-0.00103444
0.105256
-0.00103873
0.105571
-0.00105251
-0.00106601
-0.00267839
0.018747
-0.00489366
0.0175016
-0.00665328
0.0154682
-0.00810271
0.0136966
-0.00932656
0.0122212
-0.0103644
0.0109754
-0.0112376
0.00990468
-0.0119614
0.00896397
-0.0125483
0.00810588
-0.0129962
0.00726177
-0.0132922
0.00637119
-0.0134121
0.00537747
-0.0133217
0.00422822
-0.0129617
0.00285782
-0.0122612
0.00123825
-0.0111963
-0.000557812
-0.00983785
-0.00232194
-0.0082506
-0.00391752
-0.00645391
-0.00534109
-0.00446636
-0.00659947
-0.00230735
-0.00770357
4.92981e-06
-0.00866524
0.00243726
-0.00948855
0.00495786
-0.0101679
0.00755136
-0.010725
0.0102017
-0.011171
0.0128925
-0.0115173
0.0156077
-0.0117751
0.0183297
-0.011954
0.0210474
-0.0120561
0.0237535
-0.0120864
0.0264362
-0.0120583
0.029085
-0.0119825
0.0316906
-0.0118659
0.0342494
-0.011711
0.0367607
-0.0115215
0.0392195
-0.0113055
0.0416198
-0.01107
0.0439564
-0.0108188
0.0462309
-0.0105513
0.0484478
-0.0102682
0.0506075
-0.00997484
0.0527088
-0.00967637
0.0547501
-0.00937674
0.0567305
-0.00907874
0.0586497
-0.00878433
0.0605076
-0.00849488
0.0623051
-0.00821138
0.0640431
-0.00793453
0.0657227
-0.00766482
0.0673455
-0.00740262
0.0689129
-0.00714818
0.0704266
-0.00690166
0.0718883
-0.00666315
0.0732996
-0.00643269
0.0746624
-0.00621024
0.0759783
-0.00599575
0.077249
-0.00578912
0.0784763
-0.00559023
0.0796617
-0.00539891
0.0808069
-0.005215
0.0819135
-0.0050383
0.082983
-0.00486862
0.0840168
-0.00470575
0.0850165
-0.00454946
0.0859835
-0.00439955
0.086919
-0.00425577
0.0878244
-0.00411793
0.088701
-0.00398578
0.0895499
-0.00385911
0.0903723
-0.00373771
0.0911693
-0.00362136
0.091942
-0.00350985
0.0926915
-0.00340299
0.0934186
-0.00330058
0.0941244
-0.00320242
0.0948097
-0.00310833
0.0954753
-0.00301814
0.0961223
-0.00293168
0.0967512
-0.00284877
0.0973629
-0.00276927
0.0979581
-0.00269303
0.0985374
-0.0026199
0.0991016
-0.00254973
0.0996513
-0.00248241
0.100187
-0.00241781
0.10071
-0.0023558
0.101219
-0.00229627
0.101716
-0.00223912
0.102202
-0.00218425
0.102676
-0.00213154
0.10314
-0.00208092
0.103593
-0.0020323
0.104036
-0.00198559
0.10447
-0.00194071
0.104895
-0.0018976
0.10531
-0.00185618
0.105718
-0.00181638
0.106117
-0.00177816
0.106509
-0.00174144
0.106893
-0.00170617
0.107271
-0.00167232
0.107641
-0.00163983
0.108005
-0.00160865
0.108363
-0.00157877
0.108715
-0.00155014
0.109061
-0.00152275
0.109402
-0.00149658
0.109737
-0.00147165
0.110068
-0.00144796
0.110394
-0.00142559
0.110715
-0.00140463
0.111032
-0.00138524
0.111345
-0.00136769
0.111652
-0.00135235
0.111955
-0.00133979
0.112251
-0.00133072
0.112539
-0.00132592
0.112811
-0.00132534
-0.0013233
-0.00157289
0.0203199
-0.00227364
0.0182023
-0.00241056
0.0156051
-0.00231956
0.0136056
-0.00210428
0.0120058
-0.00176763
0.0106387
-0.0013018
0.00943881
-0.000707958
0.00837013
4.30378e-06
0.00739364
0.000835255
0.00643084
0.00180736
0.00539911
0.0029525
0.00423236
0.00430277
0.00287796
0.00593168
0.00122891
0.00785495
-0.000685038
0.00992304
-0.00262592
0.0120252
-0.00442411
0.0141745
-0.00606683
0.0163795
-0.00754613
0.0186415
-0.00886149
0.0209557
-0.0100178
0.0233123
-0.0110218
0.0257008
-0.011877
0.0281185
-0.0125857
0.030555
-0.0131615
0.0330005
-0.0136165
0.0354452
-0.013962
0.0378794
-0.0142093
0.0402933
-0.0143679
0.0426817
-0.0144445
0.0450415
-0.0144463
0.0473672
-0.014384
0.0496522
-0.0142676
0.0518913
-0.0141049
0.0540819
-0.0139017
0.0562235
-0.0136631
0.0583138
-0.0133958
0.06035
-0.0131062
0.0623297
-0.0127985
0.0642538
-0.0124753
0.0661245
-0.012139
0.0679433
-0.0117936
0.0697102
-0.0114432
0.0714249
-0.0110915
0.0730874
-0.0107412
0.0746976
-0.0103946
0.076256
-0.0100532
0.077763
-0.00971839
0.0792195
-0.00939108
0.0806267
-0.00907197
0.0819856
-0.00876156
0.0832976
-0.00846021
0.0845641
-0.00816816
0.0857865
-0.00788555
0.0869663
-0.00761244
0.0881049
-0.00734882
0.0892038
-0.00709463
0.0902644
-0.00684976
0.0912882
-0.00661406
0.0922767
-0.00638736
0.0932312
-0.00616945
0.094153
-0.00596011
0.0950435
-0.00575911
0.0959039
-0.00556619
0.0967355
-0.0053811
0.0975396
-0.00520358
0.0983171
-0.00503336
0.0990694
-0.00487018
0.0997974
-0.00471378
0.100502
-0.0045639
0.101185
-0.00442028
0.101846
-0.00428267
0.102487
-0.00415081
0.103108
-0.00402449
0.103711
-0.00390345
0.104296
-0.00378747
0.104864
-0.00367635
0.105416
-0.00356985
0.105952
-0.0034678
0.106473
-0.00336998
0.10698
-0.00327621
0.107474
-0.00318632
0.107954
-0.00310013
0.108422
-0.00301748
0.108877
-0.00293821
0.109322
-0.00286217
0.109755
-0.00278922
0.110178
-0.00271923
0.110591
-0.00265207
0.110994
-0.00258761
0.111389
-0.00252574
0.111774
-0.00246635
0.112151
-0.00240934
0.11252
-0.0023546
0.112881
-0.00230204
0.113235
-0.00225158
0.113582
-0.00220314
0.113922
-0.00215663
0.114256
-0.00211197
0.114584
-0.00206912
0.114906
-0.00202799
0.115222
-0.00198853
0.115533
-0.00195068
0.115839
-0.0019144
0.116139
-0.00187964
0.116436
-0.00184636
0.116727
-0.00181452
0.117015
-0.00178412
0.117298
-0.00175512
0.117578
-0.00172754
0.117854
-0.00170139
0.118126
-0.00167672
0.118394
-0.00165361
0.118659
-0.00163218
0.118919
-0.00161258
0.119174
-0.001595
0.119423
-0.00157953
0.119663
-0.00156593
0.11989
-0.00155292
-0.00153871
-0.000996722
0.0213166
0.000283374
0.0169222
0.00230745
0.0135809
0.00438929
0.0115237
0.0064883
0.00990677
0.00865435
0.00847261
0.0109039
0.00718928
0.0132369
0.00603707
0.015643
0.00498753
0.0181349
0.00393904
0.0207574
0.00277655
0.0235685
0.00142127
0.0266513
-0.000204766
0.0298851
-0.00200497
0.032995
-0.00379488
0.0358863
-0.00551727
0.0386081
-0.00714594
0.0411976
-0.00865636
0.0436847
-0.0100333
0.0460917
-0.0112685
0.0484334
-0.0123594
0.0507185
-0.013307
0.0529543
-0.0141128
0.0551489
-0.0147803
0.0573052
-0.0153177
0.0594237
-0.015735
0.0615038
-0.0160422
0.0635437
-0.0162492
0.0655414
-0.0163656
0.0674964
-0.0163995
0.0694093
-0.0163592
0.0712794
-0.016254
0.0731048
-0.016093
0.0748841
-0.0158842
0.0766167
-0.0156343
0.078303
-0.0153493
0.0799427
-0.0150356
0.0815353
-0.0146987
0.0830804
-0.0143436
0.0845787
-0.0139737
0.0860321
-0.0135924
0.0874418
-0.0132033
0.0888087
-0.0128101
0.0901333
-0.0124161
0.0914159
-0.0120238
0.092657
-0.0116356
0.0938571
-0.0112532
0.0950167
-0.010878
0.0961367
-0.010511
0.0972179
-0.0101531
0.0982612
-0.00980487
0.0992677
-0.00946672
0.100238
-0.00913895
0.101175
-0.00882175
0.102077
-0.0085152
0.102948
-0.00821931
0.103787
-0.007934
0.104597
-0.00765918
0.105377
-0.00739467
0.10613
-0.00714029
0.106857
-0.0068958
0.107558
-0.00666097
0.108234
-0.00643553
0.108887
-0.00621919
0.109518
-0.00601168
0.110127
-0.0058127
0.110715
-0.00562195
0.111284
-0.00543914
0.111834
-0.00526398
0.112367
-0.00509616
0.112882
-0.0049354
0.113381
-0.00478142
0.113864
-0.00463394
0.114332
-0.00449269
0.114786
-0.00435741
0.115226
-0.00422784
0.115654
-0.00410374
0.116069
-0.00398487
0.116472
-0.003871
0.116864
-0.00376192
0.117245
-0.0036574
0.117616
-0.00355726
0.117977
-0.00346129
0.118329
-0.00336932
0.118672
-0.00328116
0.119006
-0.00319664
0.119333
-0.00311561
0.119651
-0.00303792
0.119963
-0.00296341
0.120267
-0.00289194
0.120565
-0.0028234
0.120856
-0.00275764
0.121141
-0.00269456
0.12142
-0.00263405
0.121694
-0.00257599
0.121963
-0.00252029
0.122227
-0.00246685
0.122486
-0.00241559
0.12274
-0.00236642
0.12299
-0.00231926
0.123236
-0.00227404
0.123478
-0.0022307
0.123717
-0.00218916
0.123952
-0.00214937
0.124184
-0.00211128
0.124412
-0.00207484
0.124637
-0.00204
0.12486
-0.00200673
0.12508
-0.00197499
0.125297
-0.00194476
0.125512
-0.00191603
0.125724
-0.00188876
0.125933
-0.00186296
0.12614
-0.00183861
0.126343
-0.00181565
0.126542
-0.00179395
0.126735
-0.00177318
0.126922
-0.00175246
0.127099
-0.00173006
-0.00170705
9.41746e-05
0.0212224
0.00579337
0.0112229
0.0113785
0.00799581
0.0165278
0.00637426
0.0214552
0.00497935
0.026206
0.00372177
0.0307965
0.00259874
0.0352786
0.00155496
0.0397948
0.000471325
0.0444455
-0.000711558
0.0491563
-0.00193431
0.0537649
-0.00318724
0.0580562
-0.00449606
0.0619108
-0.00585962
0.0653769
-0.00726104
0.0685067
-0.00864707
0.071345
-0.00998427
0.0739364
-0.0112478
0.0763209
-0.0124178
0.0785323
-0.0134799
0.080598
-0.0144252
0.0825398
-0.0152488
0.0843761
-0.0159491
0.086123
-0.0165272
0.0877929
-0.0169876
0.0893948
-0.017337
0.0909357
-0.0175831
0.0924206
-0.0177341
0.0938534
-0.0177984
0.0952378
-0.0177839
0.0965773
-0.0176988
0.0978746
-0.0175512
0.0991311
-0.0173495
0.100348
-0.0171012
0.101527
-0.0168129
0.102668
-0.016491
0.103774
-0.0161412
0.104844
-0.0157691
0.10588
-0.0153792
0.106882
-0.0149757
0.107852
-0.014562
0.10879
-0.0141419
0.109699
-0.0137185
0.110577
-0.0132949
0.111427
-0.0128736
0.112248
-0.0124568
0.113041
-0.0120463
0.113807
-0.0116434
0.114545
-0.0112493
0.115257
-0.0108649
0.115943
-0.0104908
0.116603
-0.0101274
0.11724
-0.00977518
0.117852
-0.00943428
0.118442
-0.0091048
0.119009
-0.00878677
0.119555
-0.00848013
0.120081
-0.00818477
0.120587
-0.00790052
0.121074
-0.00762718
0.121542
-0.00736452
0.121994
-0.00711227
0.122428
-0.00687016
0.122847
-0.00663789
0.123251
-0.00641515
0.123639
-0.00620162
0.124015
-0.005997
0.124376
-0.00580097
0.124726
-0.0056132
0.125063
-0.00543338
0.125389
-0.0052612
0.125703
-0.00509635
0.126008
-0.00493853
0.126303
-0.00478746
0.126588
-0.00464285
0.126865
-0.00450443
0.127133
-0.00437192
0.127393
-0.00424507
0.127646
-0.00412364
0.127891
-0.00400738
0.12813
-0.00389607
0.128362
-0.00378949
0.128588
-0.00368742
0.128809
-0.00358967
0.129023
-0.00349605
0.129233
-0.00340637
0.129438
-0.00332045
0.129638
-0.00323814
0.129834
-0.00315926
0.130026
-0.00308368
0.130214
-0.00301124
0.130398
-0.00294182
0.130578
-0.00287528
0.130756
-0.00281151
0.13093
-0.00275038
0.131102
-0.00269179
0.131271
-0.00263563
0.131437
-0.00258182
0.131601
-0.00253025
0.131762
-0.00248085
0.131922
-0.00243353
0.132079
-0.00238822
0.132235
-0.00234484
0.132389
-0.00230334
0.132541
-0.00226365
0.132692
-0.00222572
0.132841
-0.00218948
0.13299
-0.0021549
0.133137
-0.00212191
0.133282
-0.00209047
0.133427
-0.00206053
0.13357
-0.002032
0.133712
-0.00200482
0.133852
-0.00197883
0.13399
-0.00195384
0.134126
-0.00192948
0.134258
-0.00190516
0.134385
-0.0018797
0.134506
-0.00185128
-0.00182267
0.0232307
-0.00200837
0.0356143
-0.00116069
0.0454759
-0.0018658
0.0542375
-0.00238733
0.0620034
-0.00278662
0.0689072
-0.00318205
0.0751098
-0.00360385
0.0807371
-0.00407237
0.0858161
-0.00460767
0.090329
-0.00522448
0.0943446
-0.0059499
0.0979518
-0.00679436
0.101198
-0.00774196
0.104106
-0.00876833
0.106693
-0.00984721
0.108988
-0.0109427
0.111026
-0.0120223
0.112838
-0.0130597
0.114454
-0.0140335
0.1159
-0.0149267
0.117202
-0.0157271
0.118381
-0.016427
0.119454
-0.0170222
0.120438
-0.0175117
0.121348
-0.0178975
0.122195
-0.0181836
0.122987
-0.0183757
0.123734
-0.0184802
0.124439
-0.0185041
0.12511
-0.0184545
0.12575
-0.0183386
0.126362
-0.0181638
0.12695
-0.0179375
0.127516
-0.0176666
0.12806
-0.0173575
0.128585
-0.0170161
0.129092
-0.016648
0.129581
-0.0162583
0.130054
-0.0158515
0.13051
-0.0154318
0.130951
-0.0150028
0.131377
-0.014568
0.131789
-0.0141303
0.132186
-0.0136928
0.132571
-0.0132577
0.132941
-0.0128273
0.133298
-0.0124032
0.133641
-0.0119869
0.133972
-0.0115795
0.134289
-0.0111819
0.134593
-0.0107949
0.134884
-0.0104188
0.135163
-0.0100542
0.13543
-0.00970127
0.135686
-0.00936007
0.135929
-0.00903069
0.136162
-0.00871309
0.136385
-0.00840717
0.136597
-0.00811278
0.1368
-0.00782971
0.136993
-0.00755774
0.137177
-0.0072966
0.137353
-0.00704601
0.137521
-0.00680568
0.137681
-0.00657529
0.137834
-0.00635452
0.13798
-0.00614304
0.138119
-0.00594053
0.138253
-0.00574665
0.138381
-0.00556108
0.138503
-0.00538349
0.13862
-0.00521357
0.138733
-0.00505101
0.138841
-0.00489551
0.138945
-0.00474675
0.139045
-0.00460447
0.139141
-0.00446837
0.139234
-0.0043382
0.139324
-0.00421369
0.139411
-0.00409459
0.139496
-0.00398066
0.139578
-0.00387167
0.139658
-0.0037674
0.139736
-0.00366764
0.139812
-0.00357219
0.139887
-0.00348085
0.13996
-0.00339344
0.140031
-0.00330978
0.140102
-0.00322971
0.140171
-0.00315307
0.140239
-0.00307971
0.140307
-0.00300948
0.140374
-0.00294224
0.14044
-0.00287788
0.140506
-0.00281627
0.140572
-0.00275729
0.140637
-0.00270084
0.140702
-0.0026468
0.140767
-0.0025951
0.140831
-0.00254564
0.140896
-0.00249833
0.140961
-0.00245309
0.141026
-0.00240985
0.141091
-0.00236854
0.141157
-0.00232909
0.141222
-0.00229145
0.141288
-0.00225554
0.141355
-0.0022213
0.141422
-0.00218868
0.141489
-0.0021576
0.141556
-0.00212797
0.141624
-0.00209969
0.141692
-0.00207262
0.141759
-0.00204653
0.141827
-0.00202112
0.141893
-0.00199592
0.141958
-0.00197019
0.142021
-0.00194267
0.142081
-0.00191163
-0.00188049
0.155904
-0.000614928
0.155543
-0.000799347
0.154807
-0.00112939
0.154009
-0.00159011
0.153305
-0.00208253
0.152736
-0.00261309
0.152334
-0.00320162
0.152117
-0.00385543
0.152086
-0.00457667
0.152228
-0.00536628
0.152507
-0.00622877
0.152877
-0.00716458
0.153298
-0.0081628
0.153734
-0.00920421
0.154153
-0.0102664
0.154535
-0.0113243
0.154866
-0.0123539
0.155141
-0.0133345
0.155357
-0.0142492
0.155515
-0.0150849
0.15562
-0.0158319
0.155677
-0.016484
0.155693
-0.0170381
0.155674
-0.0174935
0.155629
-0.0178519
0.155562
-0.0181169
0.15548
-0.0182932
0.155386
-0.0183865
0.155285
-0.018403
0.155179
-0.0183491
0.155072
-0.0182316
0.154966
-0.0180572
0.154861
-0.0178327
0.154759
-0.0175645
0.15466
-0.0172587
0.154565
-0.0169209
0.154474
-0.0165566
0.154386
-0.0161706
0.154302
-0.0157674
0.154221
-0.015351
0.154143
-0.0149251
0.154068
-0.0144931
0.153996
-0.0140579
0.153926
-0.0136225
0.153857
-0.0131891
0.153789
-0.0127598
0.153723
-0.0123364
0.153656
-0.0119204
0.15359
-0.0115128
0.153522
-0.0111148
0.153455
-0.010727
0.153386
-0.01035
0.153316
-0.00998432
0.153245
-0.00963012
0.153172
-0.00928762
0.153098
-0.00895691
0.153023
-0.00863798
0.152947
-0.00833076
0.152869
-0.00803513
0.152791
-0.00775091
0.152711
-0.00747789
0.15263
-0.00721582
0.152548
-0.00696442
0.152466
-0.00672341
0.152383
-0.00649247
0.1523
-0.0062713
0.152217
-0.00605957
0.152133
-0.00585695
0.152049
-0.0056631
0.151966
-0.00547771
0.151883
-0.00530045
0.1518
-0.00513098
0.151718
-0.00496901
0.151637
-0.00481421
0.151557
-0.00466629
0.151477
-0.00452496
0.151399
-0.00438992
0.151321
-0.00426091
0.151245
-0.00413766
0.151171
-0.00401991
0.151097
-0.00390742
0.151026
-0.00379996
0.150956
-0.00369728
0.150887
-0.00359918
0.15082
-0.00350546
0.150755
-0.0034159
0.150692
-0.00333032
0.150631
-0.00324855
0.150572
-0.0031704
0.150514
-0.00309572
0.150459
-0.00302435
0.150406
-0.00295614
0.150354
-0.00289095
0.150305
-0.00282866
0.150258
-0.00276912
0.150213
-0.00271224
0.15017
-0.00265789
0.150129
-0.00260597
0.15009
-0.00255639
0.150054
-0.00250904
0.150019
-0.00246385
0.149987
-0.00242073
0.149956
-0.0023796
0.149928
-0.00234039
0.149902
-0.00230304
0.149878
-0.00226747
0.149856
-0.00223362
0.149836
-0.00220142
0.149819
-0.0021708
0.149803
-0.00214168
0.149789
-0.00211395
0.149776
-0.00208749
0.149766
-0.00206212
0.149757
-0.00203759
0.149749
-0.00201354
0.149743
-0.00198946
0.149737
-0.00196459
0.149732
-0.00193774
0.149728
-0.0019074
-0.00187675
0.194128
-0.000805252
0.194353
-0.00102444
0.194498
-0.00127435
0.194537
-0.00162925
0.194516
-0.00206079
0.194454
-0.00255175
0.194359
-0.00310673
0.194234
-0.00373041
0.194081
-0.00442358
0.1939
-0.00518522
0.193685
-0.00601376
0.193426
-0.00690495
0.193111
-0.00784852
0.192736
-0.00882842
0.192295
-0.00982532
0.191789
-0.0108184
0.191222
-0.0117872
0.190601
-0.0127134
0.189933
-0.0135815
0.189227
-0.014379
0.188492
-0.0150966
0.187736
-0.0157279
0.186967
-0.0162693
0.186193
-0.0167193
0.18542
-0.0170787
0.184653
-0.0173502
0.183897
-0.0175374
0.183156
-0.0176452
0.182432
-0.0176789
0.181727
-0.0176445
0.181043
-0.0175479
0.180382
-0.0173953
0.179742
-0.0171931
0.179125
-0.0169471
0.178529
-0.0166631
0.177955
-0.0163467
0.177401
-0.0160029
0.176867
-0.0156366
0.176352
-0.015252
0.175854
-0.0148532
0.175373
-0.014444
0.174907
-0.0140275
0.174456
-0.0136069
0.174019
-0.013185
0.173594
-0.012764
0.17318
-0.0123462
0.172777
-0.0119333
0.172384
-0.0115268