/*--------------------------------*- C++ -*----------------------------------*\
| =========                 |                                                 |
| \\      /  F ield         | OpenFOAM: The Open Source CFD Toolbox           |
|  \\    /   O peration     | Version:  4.0                                   |
|   \\  /    A nd           | Web:      www.OpenFOAM.org                      |
|    \\/     M anipulation  |                                                 |
\*---------------------------------------------------------------------------*/
FoamFile
{
    version     2.0;
    format      ascii;
    class       volVectorField;
    location    "85";
    object      U;
}
// * * * * * * * * * * * * * * * * * * * * * * * * * * * * * * * * * * * * * //

dimensions      [0 1 -1 0 0 0 0];

internalField   nonuniform List<vector> 
3136
(
(0.591505 -0.00488564 0)
(0.594377 -0.00520372 0)
(0.597808 -0.00497564 0)
(0.601375 -0.00466739 0)
(0.604684 -0.00434618 0)
(0.60769 -0.00401545 0)
(0.610453 -0.00369001 0)
(0.613021 -0.00338459 0)
(0.615421 -0.00310648 0)
(0.617675 -0.00285714 0)
(0.619808 -0.00263416 0)
(0.621838 -0.00243047 0)
(0.623767 -0.00222891 0)
(0.625562 -0.00198654 0)
(0.627018 -0.00161891 0)
(0.629347 -0.00366147 0)
(0.787045 -0.00189247 0)
(0.784384 -0.00242328 0)
(0.781961 -0.00242993 0)
(0.779975 -0.00235628 0)
(0.778351 -0.00227585 0)
(0.777004 -0.00218441 0)
(0.775896 -0.0020913 0)
(0.775008 -0.0020102 0)
(0.774317 -0.00194851 0)
(0.773806 -0.00190774 0)
(0.773466 -0.00188572 0)
(0.773292 -0.00187615 0)
(0.773296 -0.00186439 0)
(0.773529 -0.00181728 0)
(0.774146 -0.00167019 0)
(0.775185 -0.00127393 0)
(0.854014 -0.000150412 0)
(0.853638 -0.000403434 0)
(0.853049 -0.000579191 0)
(0.852454 -0.000715394 0)
(0.851932 -0.000844778 0)
(0.851473 -0.000966242 0)
(0.85107 -0.00107991 0)
(0.850728 -0.00119251 0)
(0.850454 -0.00131106 0)
(0.850255 -0.00144041 0)
(0.850136 -0.00158392 0)
(0.850112 -0.00174453 0)
(0.850199 -0.00192644 0)
(0.850432 -0.00214117 0)
(0.850852 -0.00243174 0)
(0.851453 -0.00294996 0)
(0.898618 -0.000337615 0)
(0.898773 -0.000734209 0)
(0.898896 -0.00103533 0)
(0.899004 -0.00122113 0)
(0.899118 -0.00134301 0)
(0.899238 -0.00143433 0)
(0.89936 -0.00151243 0)
(0.899488 -0.00159156 0)
(0.89963 -0.00168425 0)
(0.899794 -0.00180028 0)
(0.89999 -0.00194747 0)
(0.900229 -0.00213358 0)
(0.900527 -0.00236882 0)
(0.900903 -0.00267002 0)
(0.901375 -0.00306813 0)
(0.901945 -0.0036143 0)
(0.937308 -0.0003774 0)
(0.937417 -0.000690911 0)
(0.937508 -0.000889076 0)
(0.937549 -0.00101704 0)
(0.937557 -0.00111801 0)
(0.93755 -0.00121491 0)
(0.937537 -0.00131923 0)
(0.937526 -0.00143974 0)
(0.937527 -0.00158445 0)
(0.937546 -0.00176057 0)
(0.937593 -0.00197517 0)
(0.937676 -0.00223664 0)
(0.937803 -0.00255641 0)
(0.937985 -0.00295114 0)
(0.938226 -0.00344502 0)
(0.938523 -0.00406976 0)
(0.96586 -0.000769447 0)
(0.966029 -0.00115042 0)
(0.966114 -0.00131288 0)
(0.966081 -0.00139095 0)
(0.96597 -0.00143818 0)
(0.965813 -0.0014794 0)
(0.965623 -0.00153241 0)
(0.965412 -0.00161059 0)
(0.965192 -0.00172381 0)
(0.964975 -0.00187995 0)
(0.964771 -0.00208643 0)
(0.964588 -0.00235164 0)
(0.964433 -0.00268618 0)
(0.964311 -0.00310402 0)
(0.964223 -0.00362313 0)
(0.964165 -0.00426457 0)
(0.988257 -0.000463489 0)
(0.988003 -0.000649879 0)
(0.987465 -0.000688373 0)
(0.986753 -0.000709433 0)
(0.985994 -0.00074036 0)
(0.985237 -0.000789532 0)
(0.984498 -0.000866272 0)
(0.983785 -0.000978641 0)
(0.983107 -0.00113277 0)
(0.982471 -0.00133409 0)
(0.981879 -0.00158848 0)
(0.981332 -0.00190307 0)
(0.98083 -0.0022869 0)
(0.980369 -0.00275134 0)
(0.979945 -0.00331019 0)
(0.979547 -0.00397878 0)
(0.997494 -0.000228292 0)
(0.996957 -0.000183468 0)
(0.996137 -9.07285e-05 0)
(0.995184 -2.31463e-05 0)
(0.994226 -1.71098e-07 0)
(0.993298 -2.70028e-05 0)
(0.992403 -0.000105207 0)
(0.991546 -0.000235266 0)
(0.990731 -0.000417701 0)
(0.989961 -0.000653727 0)
(0.989237 -0.000946157 0)
(0.988556 -0.00129962 0)
(0.987914 -0.00172065 0)
(0.987306 -0.00221768 0)
(0.986723 -0.00280086 0)
(0.986155 -0.00348144 0)
(0.996821 0.000645099 0)
(0.996365 0.000963938 0)
(0.995644 0.00109038 0)
(0.99478 0.00113131 0)
(0.993897 0.00110532 0)
(0.993031 0.00101781 0)
(0.992188 0.000875302 0)
(0.991372 0.000682291 0)
(0.990587 0.000440566 0)
(0.989836 0.000149948 0)
(0.989118 -0.000191175 0)
(0.988428 -0.000586372 0)
(0.98776 -0.00104163 0)
(0.987108 -0.00156433 0)
(0.986464 -0.00216242 0)
(0.985815 -0.00284449 0)
(0.984666 0.000836319 0)
(0.98469 0.00133577 0)
(0.984494 0.00160223 0)
(0.984101 0.00174178 0)
(0.983602 0.00177769 0)
(0.983055 0.0017226 0)
(0.982482 0.00159069 0)
(0.981895 0.00139324 0)
(0.981304 0.00113802 0)
(0.980715 0.000829969 0)
(0.98013 0.000471487 0)
(0.979549 6.23895e-05 0)
(0.978965 -0.000399994 0)
(0.978367 -0.000921024 0)
(0.977748 -0.00150752 0)
(0.977097 -0.00216596 0)
(0.95951 0.000642937 0)
(0.959723 0.00122561 0)
(0.959819 0.00165484 0)
(0.959767 0.00192103 0)
(0.959625 0.00204914 0)
(0.959436 0.00206538 0)
(0.959213 0.00198774 0)
(0.958962 0.00182986 0)
(0.958686 0.00160355 0)
(0.958389 0.00131805 0)
(0.958067 0.000979202 0)
(0.957718 0.000590141 0)
(0.957337 0.000152193 0)
(0.956918 -0.000336072 0)
(0.956444 -0.000879702 0)
(0.955906 -0.00148472 0)
(0.930742 0.000574914 0)
(0.930438 0.00125022 0)
(0.929934 0.00176041 0)
(0.929319 0.00203938 0)
(0.928701 0.00214936 0)
(0.928113 0.00214506 0)
(0.927553 0.00205233 0)
(0.927017 0.00188787 0)
(0.926502 0.00166615 0)
(0.926003 0.00139754 0)
(0.925511 0.00108766 0)
(0.925015 0.000738602 0)
(0.924502 0.000350679 0)
(0.923965 -7.62713e-05 0)
(0.923394 -0.00054363 0)
(0.92276 -0.00105604 0)
(0.890924 0.00100409 0)
(0.890418 0.00206403 0)
(0.889524 0.00280398 0)
(0.888513 0.00320194 0)
(0.887567 0.00336903 0)
(0.886692 0.00337308 0)
(0.885861 0.00325099 0)
(0.885063 0.003036 0)
(0.884294 0.00275669 0)
(0.883545 0.00243248 0)
(0.882802 0.00207454 0)
(0.882054 0.00168859 0)
(0.881289 0.0012768 0)
(0.880495 0.000839573 0)
(0.879662 0.000377479 0)
(0.87879 -0.000110076 0)
(0.84054 0.00146498 0)
(0.839534 0.00251879 0)
(0.837774 0.0029859 0)
(0.835876 0.00320715 0)
(0.834093 0.00332936 0)
(0.832413 0.00335187 0)
(0.830819 0.00327815 0)
(0.829316 0.00313288 0)
(0.827901 0.00293848 0)
(0.826562 0.00270758 0)
(0.825282 0.00244647 0)
(0.824044 0.00215855 0)
(0.822832 0.00184548 0)
(0.821631 0.00150732 0)
(0.820425 0.00114319 0)
(0.819197 0.000753661 0)
(0.766681 0.00567596 0)
(0.760812 0.00796086 0)
(0.755404 0.00832771 0)
(0.751053 0.00817149 0)
(0.747504 0.00783396 0)
(0.744519 0.00735735 0)
(0.742011 0.00679571 0)
(0.739926 0.00620927 0)
(0.738191 0.00563387 0)
(0.73673 0.00508321 0)
(0.735482 0.00456016 0)
(0.734393 0.00406332 0)
(0.733419 0.00358933 0)
(0.73252 0.00313369 0)
(0.73166 0.00269124 0)
(0.730806 0.0022567 0)
(0.478791 0.0043452 0)
(0.484773 0.00805994 0)
(0.493205 0.00914921 0)
(0.502881 0.00936539 0)
(0.512118 0.00916591 0)
(0.520482 0.00869248 0)
(0.528056 0.00806532 0)
(0.534933 0.00737983 0)
(0.54115 0.00669269 0)
(0.546736 0.0060321 0)
(0.551732 0.00541067 0)
(0.556185 0.00483312 0)
(0.560133 0.00429969 0)
(0.563614 0.00380803 0)
(0.566654 0.00335431 0)
(0.569278 0.00293402 0)
(-0.0197201 0.0185415 0)
(-0.040301 0.0180209 0)
(-0.0646305 0.0156633 0)
(-0.0867894 0.0137834 0)
(-0.106894 0.0122973 0)
(-0.125232 0.0110611 0)
(-0.142021 0.0099996 0)
(-0.1574 0.0090639 0)
(-0.171563 0.00820884 0)
(-0.184561 0.00736894 0)
(-0.196373 0.0064916 0)
(-0.20691 0.00553651 0)
(-0.216021 0.00447426 0)
(-0.223504 0.00328892 0)
(-0.229139 0.00198452 0)
(-0.232733 0.000588936 0)
(-0.234128 -0.00083688 0)
(-0.233201 -0.00218718 0)
(-0.230322 -0.00340207 0)
(-0.225682 -0.00448629 0)
(-0.219498 -0.005455 0)
(-0.211966 -0.00632083 0)
(-0.203262 -0.00709285 0)
(-0.193554 -0.00776867 0)
(-0.183007 -0.00834966 0)
(-0.171779 -0.0088451 0)
(-0.160008 -0.0092654 0)
(-0.147825 -0.00962107 0)
(-0.135335 -0.00992792 0)
(-0.122607 -0.0102095 0)
(-0.109711 -0.0104586 0)
(-0.0967237 -0.0106548 0)
(-0.0837453 -0.0108065 0)
(-0.0708581 -0.0109359 0)
(-0.0580379 -0.0110768 0)
(-0.0453637 -0.0112382 0)
(-0.032831 -0.0114047 0)
(-0.0205197 -0.011591 0)
(-0.00863753 -0.0117708 0)
(0.00370045 -0.011571 0)
(0.015096 -0.0109255 0)
(0.0261961 -0.0102267 0)
(0.0370082 -0.00959539 0)
(0.0474442 -0.00903285 0)
(0.0575061 -0.00852693 0)
(0.0672128 -0.00806769 0)
(0.0765797 -0.00764753 0)
(0.0856194 -0.00726059 0)
(0.0943427 -0.00690222 0)
(0.10276 -0.00656877 0)
(0.110882 -0.00625738 0)
(0.118718 -0.00596573 0)
(0.126277 -0.00569193 0)
(0.133569 -0.00543439 0)
(0.140604 -0.00519179 0)
(0.14739 -0.00496298 0)
(0.153937 -0.00474697 0)
(0.160253 -0.00454287 0)
(0.166347 -0.00434988 0)
(0.172228 -0.00416728 0)
(0.177904 -0.00399442 0)
(0.183383 -0.00383068 0)
(0.188673 -0.00367552 0)
(0.193782 -0.00352842 0)
(0.198717 -0.0033889 0)
(0.203486 -0.00325651 0)
(0.208094 -0.00313084 0)
(0.212549 -0.00301149 0)
(0.216857 -0.00289811 0)
(0.221025 -0.00279035 0)
(0.225058 -0.00268788 0)
(0.228961 -0.00259042 0)
(0.23274 -0.00249767 0)
(0.236401 -0.00240937 0)
(0.239948 -0.00232527 0)
(0.243386 -0.00224513 0)
(0.24672 -0.00216874 0)
(0.249953 -0.00209589 0)
(0.25309 -0.00202638 0)
(0.256135 -0.00196003 0)
(0.259092 -0.00189666 0)
(0.261964 -0.00183612 0)
(0.264755 -0.00177825 0)
(0.267467 -0.00172291 0)
(0.270105 -0.00166996 0)
(0.272671 -0.00161929 0)
(0.275167 -0.00157076 0)
(0.277597 -0.00152427 0)
(0.279963 -0.00147972 0)
(0.282268 -0.001437 0)
(0.284514 -0.00139602 0)
(0.286703 -0.00135671 0)
(0.288838 -0.00131897 0)
(0.29092 -0.00128274 0)
(0.292952 -0.00124794 0)
(0.294935 -0.0012145 0)
(0.296871 -0.00118237 0)
(0.298763 -0.00115148 0)
(0.300611 -0.00112179 0)
(0.302417 -0.00109325 0)
(0.304183 -0.0010658 0)
(0.305911 -0.00103941 0)
(0.307602 -0.00101405 0)
(0.309257 -0.00098967 0)
(0.310878 -0.000966253 0)
(0.312466 -0.000943779 0)
(0.314023 -0.000922237 0)
(0.315549 -0.000901632 0)
(0.317047 -0.000881988 0)
(0.318517 -0.000863366 0)
(0.319961 -0.000845879 0)
(0.321382 -0.000829733 0)
(0.322782 -0.000815292 0)
(0.324163 -0.000803207 0)
(0.32553 -0.000794658 0)
(0.32689 -0.000791825 0)
(0.328255 -0.000798884 0)
(0.329644 -0.000825565 0)
(0.33111 -0.000897929 0)
(0.333121 -0.00102063 0)
(-0.0168458 0.0365886 0)
(-0.0331416 0.0364439 0)
(-0.0524936 0.033235 0)
(-0.0698258 0.0301306 0)
(-0.0852952 0.0274439 0)
(-0.0992098 0.0251186 0)
(-0.111814 0.0230878 0)
(-0.123298 0.0212864 0)
(-0.133792 0.0196233 0)
(-0.14335 0.0179807 0)
(-0.151963 0.0162482 0)
(-0.15956 0.0143281 0)
(-0.166003 0.0121368 0)
(-0.171098 0.00961258 0)
(-0.174621 0.00673948 0)
(-0.176349 0.00356619 0)
(-0.176057 0.000234738 0)
(-0.17381 -0.00296601 0)
(-0.169888 -0.0058116 0)
(-0.164425 -0.00830575 0)
(-0.157612 -0.0104863 0)
(-0.149621 -0.0123892 0)
(-0.1406 -0.0140494 0)
(-0.130702 -0.015466 0)
(-0.120069 -0.0166408 0)
(-0.10884 -0.017596 0)
(-0.0971352 -0.0183561 0)
(-0.0850672 -0.0189427 0)
(-0.0727417 -0.01938 0)
(-0.0602055 -0.0197162 0)
(-0.0475819 -0.0199563 0)
(-0.0349111 -0.0200757 0)
(-0.0222566 -0.0200932 0)
(-0.00968371 -0.0200387 0)
(0.00299146 -0.019914 0)
(0.0153239 -0.0197271 0)
(0.0273717 -0.0195021 0)
(0.0391728 -0.0192631 0)
(0.0506932 -0.0190299 0)
(0.0620038 -0.0186244 0)
(0.0729815 -0.0179959 0)
(0.0836641 -0.0173188 0)
(0.0940495 -0.0166556 0)
(0.104123 -0.0160199 0)
(0.11388 -0.0154147 0)
(0.123325 -0.0148383 0)
(0.132462 -0.0142879 0)
(0.141297 -0.0137612 0)
(0.149837 -0.013256 0)
(0.15809 -0.0127707 0)
(0.166064 -0.0123043 0)
(0.173765 -0.0118558 0)
(0.181204 -0.0114246 0)
(0.188387 -0.01101 0)
(0.195324 -0.0106115 0)
(0.202022 -0.0102288 0)
(0.208491 -0.00986121 0)
(0.214738 -0.00950839 0)
(0.220772 -0.00916986 0)
(0.2266 -0.00884518 0)
(0.232231 -0.00853387 0)
(0.237672 -0.00823548 0)
(0.242931 -0.00794955 0)
(0.248014 -0.00767563 0)
(0.252929 -0.00741324 0)
(0.257683 -0.00716195 0)
(0.262281 -0.00692132 0)
(0.266731 -0.0066909 0)
(0.271039 -0.00647028 0)
(0.27521 -0.00625904 0)
(0.27925 -0.00605677 0)
(0.283164 -0.00586309 0)
(0.286958 -0.00567762 0)
(0.290636 -0.00549999 0)
(0.294204 -0.00532985 0)
(0.297665 -0.00516686 0)
(0.301025 -0.00501069 0)
(0.304287 -0.00486103 0)
(0.307456 -0.00471759 0)
(0.310535 -0.00458006 0)
(0.313528 -0.0044482 0)
(0.316438 -0.00432172 0)
(0.319269 -0.00420038 0)
(0.322024 -0.00408395 0)
(0.324706 -0.0039722 0)
(0.327317 -0.00386492 0)
(0.329862 -0.0037619 0)
(0.332342 -0.00366295 0)
(0.334759 -0.00356789 0)
(0.337117 -0.00347654 0)
(0.339418 -0.00338874 0)
(0.341664 -0.00330434 0)
(0.343856 -0.00322319 0)
(0.345998 -0.00314515 0)
(0.348091 -0.0030701 0)
(0.350137 -0.0029979 0)
(0.352137 -0.00292846 0)
(0.354095 -0.00286165 0)
(0.35601 -0.00279739 0)
(0.357885 -0.00273558 0)
(0.359722 -0.00267613 0)
(0.361522 -0.00261896 0)
(0.363286 -0.00256401 0)
(0.365015 -0.00251121 0)
(0.366712 -0.00246053 0)
(0.368378 -0.00241191 0)
(0.370013 -0.00236536 0)
(0.37162 -0.0023209 0)
(0.373199 -0.00227859 0)
(0.374752 -0.00223857 0)
(0.37628 -0.00220111 0)
(0.377785 -0.00216668 0)
(0.379269 -0.00213607 0)
(0.380734 -0.0021107 0)
(0.382183 -0.00209299 0)
(0.383618 -0.00208724 0)
(0.385045 -0.00210129 0)
(0.386466 -0.00215162 0)
(0.387909 -0.00227342 0)
(0.389629 -0.00242422 0)
(-0.01264 0.0558066 0)
(-0.0241408 0.054157 0)
(-0.0379902 0.049029 0)
(-0.0499765 0.0440847 0)
(-0.0604809 0.0397816 0)
(-0.0698196 0.0360884 0)
(-0.07819 0.0329042 0)
(-0.0857347 0.030106 0)
(-0.092551 0.0275418 0)
(-0.0986777 0.0250307 0)
(-0.104099 0.0224019 0)
(-0.108742 0.0195018 0)
(-0.112483 0.016192 0)
(-0.115132 0.0123511 0)
(-0.116447 0.00793277 0)
(-0.116151 0.00302373 0)
(-0.113908 -0.00205889 0)
(-0.110223 -0.0068385 0)
(-0.105133 -0.0110836 0)
(-0.0987983 -0.01481 0)
(-0.0913723 -0.0180613 0)
(-0.0830013 -0.0208812 0)
(-0.0737847 -0.0233256 0)
(-0.0638925 -0.0253932 0)
(-0.053427 -0.0270905 0)
(-0.0425023 -0.0284548 0)
(-0.031213 -0.029526 0)
(-0.0196432 -0.0303409 0)
(-0.00788154 -0.0309316 0)
(0.00416256 -0.0313195 0)
(0.0160965 -0.031507 0)
(0.0279778 -0.031525 0)
(0.0397773 -0.0314094 0)
(0.0514395 -0.0311908 0)
(0.0629593 -0.0308435 0)
(0.0742842 -0.0303655 0)
(0.0854084 -0.0298139 0)
(0.096303 -0.0292237 0)
(0.10693 -0.0286033 0)
(0.117287 -0.0279137 0)
(0.127383 -0.0271435 0)
(0.137235 -0.0263353 0)
(0.146835 -0.0255187 0)
(0.156167 -0.0247077 0)
(0.165226 -0.0239087 0)
(0.174006 -0.0231253 0)
(0.182508 -0.0223594 0)
(0.190735 -0.0216121 0)
(0.198691 -0.0208842 0)
(0.206382 -0.0201762 0)
(0.213814 -0.0194884 0)
(0.220995 -0.0188213 0)
(0.227931 -0.0181751 0)
(0.23463 -0.0175497 0)
(0.241099 -0.0169453 0)
(0.247348 -0.0163618 0)
(0.253382 -0.015799 0)
(0.259211 -0.0152566 0)
(0.26484 -0.0147343 0)
(0.270279 -0.0142318 0)
(0.275534 -0.0137485 0)
(0.280612 -0.013284 0)
(0.28552 -0.0128378 0)
(0.290266 -0.0124093 0)
(0.294854 -0.011998 0)
(0.299293 -0.0116034 0)
(0.303587 -0.0112247 0)
(0.307744 -0.0108616 0)
(0.311767 -0.0105133 0)
(0.315664 -0.0101793 0)
(0.319439 -0.00985914 0)
(0.323097 -0.00955214 0)
(0.326643 -0.00925781 0)
(0.330082 -0.00897561 0)
(0.333418 -0.00870504 0)
(0.336655 -0.00844559 0)
(0.339798 -0.00819679 0)
(0.342851 -0.00795818 0)
(0.345816 -0.00772931 0)
(0.348699 -0.00750974 0)
(0.351501 -0.00729908 0)
(0.354227 -0.00709692 0)
(0.35688 -0.00690289 0)
(0.359462 -0.00671663 0)
(0.361977 -0.00653779 0)
(0.364427 -0.00636605 0)
(0.366815 -0.00620109 0)
(0.369144 -0.00604262 0)
(0.371415 -0.00589036 0)
(0.373631 -0.00574404 0)
(0.375794 -0.00560339 0)
(0.377907 -0.00546819 0)
(0.379971 -0.00533821 0)
(0.381988 -0.00521323 0)
(0.383961 -0.00509304 0)
(0.385891 -0.00497746 0)
(0.387779 -0.00486631 0)
(0.389628 -0.00475942 0)
(0.391438 -0.00465662 0)
(0.393212 -0.00455778 0)
(0.394951 -0.00446276 0)
(0.396656 -0.00437142 0)
(0.398329 -0.00428367 0)
(0.399971 -0.00419939 0)
(0.401584 -0.00411852 0)
(0.403168 -0.00404098 0)
(0.404724 -0.00396675 0)
(0.406255 -0.00389584 0)
(0.407761 -0.00382833 0)
(0.409243 -0.00376438 0)
(0.410703 -0.00370432 0)
(0.412141 -0.00364869 0)
(0.41356 -0.00359845 0)
(0.414959 -0.00355517 0)
(0.416341 -0.00352144 0)
(0.417705 -0.00350149 0)
(0.419051 -0.00350223 0)
(0.420372 -0.00353573 0)
(0.421686 -0.0036191 0)
(0.423174 -0.00370848 0)
(-0.00877644 0.0702884 0)
(-0.0155352 0.0665408 0)
(-0.0236037 0.0594025 0)
(-0.0298953 0.0529107 0)
(-0.0351392 0.0474152 0)
(-0.0396056 0.0427665 0)
(-0.0433935 0.038786 0)
(-0.0465669 0.0353009 0)
(-0.0491842 0.0321212 0)
(-0.0512606 0.029008 0)
(-0.0527711 0.0257321 0)
(-0.0536349 0.0220952 0)
(-0.0537476 0.0179091 0)
(-0.0529271 0.0129506 0)
(-0.050911 0.00711375 0)
(-0.0472598 0.000576468 0)
(-0.0422124 -0.00602655 0)
(-0.0363453 -0.0120762 0)
(-0.0295615 -0.0174593 0)
(-0.0219723 -0.0222025 0)
(-0.0136644 -0.0263545 0)
(-0.00473371 -0.0299644 0)
(0.00485258 -0.0330935 0)
(0.0147431 -0.035677 0)
(0.0249797 -0.0377917 0)
(0.0354796 -0.0394884 0)
(0.0461741 -0.0408146 0)
(0.0569972 -0.0418164 0)
(0.0678763 -0.0425334 0)
(0.0787765 -0.0429626 0)
(0.0896278 -0.0431194 0)
(0.100411 -0.0430637 0)
(0.111081 -0.042836 0)
(0.121595 -0.0424616 0)
(0.131928 -0.0419403 0)
(0.14207 -0.0412812 0)
(0.152013 -0.0405225 0)
(0.161736 -0.039695 0)
(0.171212 -0.0388127 0)
(0.180433 -0.0378659 0)
(0.189413 -0.0368531 0)
(0.198165 -0.0357975 0)
(0.206688 -0.0347221 0)
(0.214974 -0.0336429 0)
(0.223019 -0.0325706 0)
(0.230818 -0.0315123 0)
(0.238372 -0.0304729 0)
(0.245682 -0.0294557 0)
(0.252752 -0.0284628 0)
(0.259586 -0.0274959 0)
(0.26619 -0.0265561 0)
(0.272569 -0.0256442 0)
(0.27873 -0.0247607 0)
(0.284679 -0.0239059 0)
(0.290423 -0.0230799 0)
(0.29597 -0.0222826 0)
(0.301326 -0.0215138 0)
(0.306497 -0.020773 0)
(0.311492 -0.0200599 0)
(0.316316 -0.019374 0)
(0.320976 -0.0187145 0)
(0.325478 -0.0180808 0)
(0.329828 -0.0174723 0)
(0.334034 -0.0168881 0)
(0.338099 -0.0163274 0)
(0.342031 -0.0157896 0)
(0.345835 -0.0152738 0)
(0.349516 -0.0147791 0)
(0.353079 -0.0143049 0)
(0.356528 -0.0138502 0)
(0.35987 -0.0134145 0)
(0.363108 -0.0129968 0)
(0.366246 -0.0125964 0)
(0.36929 -0.0122127 0)
(0.372242 -0.0118448 0)
(0.375107 -0.0114923 0)
(0.377888 -0.0111543 0)
(0.380589 -0.0108302 0)
(0.383213 -0.0105195 0)
(0.385764 -0.0102215 0)
(0.388245 -0.00993568 0)
(0.390658 -0.00966153 0)
(0.393006 -0.0093985 0)
(0.395293 -0.00914612 0)
(0.39752 -0.0089039 0)
(0.39969 -0.00867139 0)
(0.401806 -0.00844818 0)
(0.40387 -0.00823385 0)
(0.405883 -0.00802802 0)
(0.407849 -0.00783033 0)
(0.409768 -0.00764041 0)
(0.411643 -0.00745795 0)
(0.413476 -0.00728263 0)
(0.415269 -0.00711416 0)
(0.417022 -0.00695226 0)
(0.418738 -0.00679666 0)
(0.420419 -0.00664712 0)
(0.422065 -0.00650341 0)
(0.423678 -0.0063653 0)
(0.42526 -0.0062326 0)
(0.426812 -0.00610512 0)
(0.428335 -0.00598268 0)
(0.42983 -0.00586512 0)
(0.431298 -0.0057523 0)
(0.432742 -0.0056441 0)
(0.434161 -0.00554043 0)
(0.435556 -0.00544122 0)
(0.43693 -0.00534645 0)
(0.438283 -0.00525616 0)
(0.439615 -0.0051705 0)
(0.440928 -0.00508974 0)
(0.442222 -0.00501436 0)
(0.443499 -0.00494517 0)
(0.444758 -0.00488347 0)
(0.445999 -0.00483127 0)
(0.44722 -0.00479155 0)
(0.448418 -0.0047686 0)
(0.449585 -0.00476825 0)
(0.450736 -0.00479439 0)
(0.452014 -0.00481637 0)
(-0.00585498 0.0791794 0)
(-0.00818104 0.0726824 0)
(-0.00987193 0.0635377 0)
(-0.0097664 0.0559318 0)
(-0.00906992 0.0496971 0)
(-0.00793491 0.0444189 0)
(-0.00630945 0.0398558 0)
(-0.00417334 0.0358347 0)
(-0.00156764 0.032177 0)
(0.00152145 0.0285684 0)
(0.00510176 0.0247377 0)
(0.00929732 0.0204309 0)
(0.0141954 0.0154395 0)
(0.0200534 0.00939358 0)
(0.0272257 0.00218129 0)
(0.03567 -0.00554032 0)
(0.0439195 -0.0128666 0)
(0.0523926 -0.0195133 0)
(0.061099 -0.0254622 0)
(0.0700334 -0.0307312 0)
(0.0791874 -0.0353554 0)
(0.0885289 -0.0393734 0)
(0.0980331 -0.0427967 0)
(0.107645 -0.0456378 0)
(0.117356 -0.0479587 0)
(0.127125 -0.0498075 0)
(0.136911 -0.0512307 0)
(0.146676 -0.0522734 0)
(0.156376 -0.052975 0)
(0.165985 -0.0533534 0)
(0.175483 -0.0534338 0)
(0.184857 -0.0532645 0)
(0.194083 -0.0528869 0)
(0.203134 -0.0523319 0)
(0.211995 -0.0516172 0)
(0.22066 -0.0507614 0)
(0.229125 -0.0497932 0)
(0.23738 -0.0487389 0)
(0.245413 -0.0476151 0)
(0.253219 -0.0464273 0)
(0.260807 -0.0451828 0)
(0.268185 -0.0438988 0)
(0.275356 -0.0425937 0)
(0.282319 -0.0412827 0)
(0.289074 -0.0399771 0)
(0.295619 -0.0386855 0)
(0.301956 -0.0374142 0)
(0.308086 -0.0361679 0)
(0.314012 -0.03495 0)
(0.319739 -0.0337629 0)
(0.32527 -0.0326085 0)
(0.330611 -0.031488 0)
(0.335766 -0.0304021 0)
(0.340743 -0.0293515 0)
(0.345546 -0.0283362 0)
(0.350181 -0.0273562 0)
(0.354655 -0.0264112 0)
(0.358973 -0.0255009 0)
(0.36314 -0.0246246 0)
(0.367164 -0.0237817 0)
(0.371048 -0.0229715 0)
(0.374799 -0.0221931 0)
(0.378423 -0.0214456 0)
(0.381923 -0.0207281 0)
(0.385306 -0.0200397 0)
(0.388577 -0.0193794 0)
(0.391739 -0.0187462 0)
(0.394797 -0.018139 0)
(0.397757 -0.0175571 0)
(0.400621 -0.0169993 0)
(0.403395 -0.0164647 0)
(0.406082 -0.0159524 0)
(0.408686 -0.0154615 0)
(0.41121 -0.0149911 0)
(0.413658 -0.0145403 0)
(0.416033 -0.0141082 0)
(0.418338 -0.0136942 0)
(0.420577 -0.0132973 0)
(0.422752 -0.0129169 0)
(0.424866 -0.0125522 0)
(0.426921 -0.0122025 0)
(0.428921 -0.0118672 0)
(0.430868 -0.0115457 0)
(0.432763 -0.0112372 0)
(0.434609 -0.0109413 0)
(0.436409 -0.0106574 0)
(0.438164 -0.0103849 0)
(0.439876 -0.0101234 0)
(0.441548 -0.00987244 0)
(0.44318 -0.00963147 0)
(0.444775 -0.00940011 0)
(0.446333 -0.00917794 0)
(0.447858 -0.00896459 0)
(0.44935 -0.00875968 0)
(0.45081 -0.00856288 0)
(0.45224 -0.00837385 0)
(0.453642 -0.0081923 0)
(0.455016 -0.00801794 0)
(0.456364 -0.00785048 0)
(0.457686 -0.00768969 0)
(0.458985 -0.00753532 0)
(0.460261 -0.00738716 0)
(0.461515 -0.007245 0)
(0.462748 -0.00710866 0)
(0.463961 -0.00697799 0)
(0.465154 -0.00685284 0)
(0.46633 -0.00673311 0)
(0.467489 -0.00661874 0)
(0.46863 -0.00650971 0)
(0.469756 -0.00640607 0)
(0.470867 -0.00630799 0)
(0.471963 -0.00621577 0)
(0.473043 -0.00612992 0)
(0.474109 -0.00605119 0)
(0.475159 -0.00598068 0)
(0.476191 -0.00591983 0)
(0.477199 -0.00587015 0)
(0.478177 -0.00583239 0)
(0.479139 -0.00580326 0)
(0.480203 -0.0057685 0)
(-0.00453924 0.0845132 0)
(-0.00234735 0.0723704 0)
(0.00465953 0.0607254 0)
(0.0131012 0.0525963 0)
(0.0215703 0.0459485 0)
(0.0301407 0.0401455 0)
(0.0390002 0.0350319 0)
(0.0481863 0.0304975 0)
(0.0576306 0.0264249 0)
(0.0674104 0.0224863 0)
(0.0776354 0.0182083 0)
(0.0884117 0.0131895 0)
(0.0999043 0.00707023 0)
(0.113061 -0.000204906 0)
(0.126084 -0.00795765 0)
(0.138009 -0.0155309 0)
(0.149174 -0.0225979 0)
(0.159764 -0.0290828 0)
(0.169894 -0.0349503 0)
(0.179663 -0.0401852 0)
(0.189144 -0.0447935 0)
(0.198386 -0.0487921 0)
(0.207419 -0.0521928 0)
(0.21627 -0.0550115 0)
(0.224965 -0.0572925 0)
(0.233511 -0.0590809 0)
(0.241907 -0.0604209 0)
(0.250146 -0.061356 0)
(0.25822 -0.0619255 0)
(0.266124 -0.0621607 0)
(0.273858 -0.0620938 0)
(0.281424 -0.0617648 0)
(0.288815 -0.0612121 0)
(0.296025 -0.0604679 0)
(0.303048 -0.059558 0)
(0.309885 -0.0585061 0)
(0.316537 -0.0573379 0)
(0.323001 -0.056077 0)
(0.329276 -0.054742 0)
(0.335362 -0.0533458 0)
(0.341264 -0.0519007 0)
(0.346989 -0.0504218 0)
(0.352541 -0.0489244 0)
(0.357923 -0.0474222 0)
(0.363137 -0.0459262 0)
(0.368185 -0.0444454 0)
(0.373066 -0.0429866 0)
(0.377785 -0.0415553 0)
(0.382344 -0.0401556 0)
(0.386745 -0.0387906 0)
(0.390993 -0.0374625 0)
(0.395092 -0.036173 0)
(0.399046 -0.0349232 0)
(0.402859 -0.0337138 0)
(0.406536 -0.0325449 0)
(0.410081 -0.0314167 0)
(0.4135 -0.0303288 0)
(0.416796 -0.0292808 0)
(0.419975 -0.0282721 0)
(0.423041 -0.0273019 0)
(0.425999 -0.0263694 0)
(0.428852 -0.0254737 0)
(0.431606 -0.0246136 0)
(0.434264 -0.0237882 0)
(0.43683 -0.0229964 0)
(0.439309 -0.022237 0)
(0.441703 -0.0215089 0)
(0.444018 -0.020811 0)
(0.446255 -0.0201422 0)
(0.448419 -0.0195013 0)
(0.450513 -0.0188872 0)
(0.45254 -0.0182989 0)
(0.454503 -0.0177353 0)
(0.456405 -0.0171954 0)
(0.458249 -0.0166782 0)
(0.460037 -0.0161827 0)
(0.461772 -0.015708 0)
(0.463456 -0.0152532 0)
(0.465092 -0.0148174 0)
(0.466682 -0.0143998 0)
(0.468227 -0.0139995 0)
(0.469731 -0.0136159 0)
(0.471195 -0.0132481 0)
(0.47262 -0.0128956 0)
(0.47401 -0.0125575 0)
(0.475364 -0.0122333 0)
(0.476685 -0.0119224 0)
(0.477975 -0.0116241 0)
(0.479235 -0.011338 0)
(0.480466 -0.0110634 0)
(0.481669 -0.0108 0)
(0.482847 -0.0105472 0)
(0.483999 -0.0103046 0)
(0.485128 -0.0100717 0)
(0.486235 -0.00984823 0)
(0.48732 -0.00963371 0)
(0.488384 -0.00942781 0)
(0.489429 -0.00923021 0)
(0.490456 -0.00904058 0)
(0.491465 -0.00885863 0)
(0.492457 -0.00868409 0)
(0.493433 -0.00851668 0)
(0.494394 -0.00835619 0)
(0.495341 -0.00820239 0)
(0.496274 -0.00805507 0)
(0.497194 -0.00791407 0)
(0.498102 -0.00777923 0)
(0.498998 -0.00765043 0)
(0.499883 -0.00752758 0)
(0.500757 -0.00741063 0)
(0.50162 -0.00729959 0)
(0.502474 -0.00719451 0)
(0.503317 -0.00709554 0)
(0.504148 -0.00700286 0)
(0.504968 -0.00691664 0)
(0.505773 -0.0068369 0)
(0.506558 -0.00676303 0)
(0.507318 -0.00669253 0)
(0.508067 -0.00661903 0)
(0.508895 -0.006542 0)
(-0.00184114 0.0851905 0)
(0.0107205 0.0585089 0)
(0.0336222 0.0464253 0)
(0.0557325 0.0398586 0)
(0.0761029 0.0341767 0)
(0.0954628 0.0287741 0)
(0.114142 0.0237464 0)
(0.132254 0.019032 0)
(0.149903 0.0143263 0)
(0.168248 0.00922762 0)
(0.187189 0.00373353 0)
(0.205961 -0.00215318 0)
(0.224122 -0.00856437 0)
(0.240318 -0.0152297 0)
(0.25495 -0.0218608 0)
(0.268109 -0.0282544 0)
(0.280002 -0.0343118 0)
(0.290821 -0.0399643 0)
(0.300736 -0.0451501 0)
(0.309896 -0.0498247 0)
(0.318423 -0.0539649 0)
(0.326416 -0.0575633 0)
(0.333953 -0.0606212 0)
(0.341102 -0.0631493 0)
(0.347921 -0.0651741 0)
(0.354453 -0.0667291 0)
(0.36073 -0.0678507 0)
(0.366775 -0.0685761 0)
(0.372605 -0.0689417 0)
(0.378234 -0.068981 0)
(0.383678 -0.0687276 0)
(0.388948 -0.0682171 0)
(0.394053 -0.0674842 0)
(0.398998 -0.0665603 0)
(0.403787 -0.0654728 0)
(0.408426 -0.0642471 0)
(0.412919 -0.0629073 0)
(0.41727 -0.0614758 0)
(0.421481 -0.0599716 0)
(0.425555 -0.0584105 0)
(0.429497 -0.0568066 0)
(0.433312 -0.0551743 0)
(0.437005 -0.0535275 0)
(0.440578 -0.0518786 0)
(0.444035 -0.0502381 0)
(0.447377 -0.0486148 0)
(0.450605 -0.0470157 0)
(0.453721 -0.0454464 0)
(0.456728 -0.0439115 0)
(0.459628 -0.0424143 0)
(0.462423 -0.0409574 0)
(0.465115 -0.0395426 0)
(0.467709 -0.0381712 0)
(0.470205 -0.036844 0)
(0.472609 -0.0355613 0)
(0.474923 -0.0343231 0)
(0.477149 -0.0331294 0)
(0.479292 -0.0319794 0)
(0.481354 -0.0308727 0)
(0.483339 -0.0298084 0)
(0.485249 -0.0287856 0)
(0.487089 -0.0278032 0)
(0.48886 -0.0268602 0)
(0.490566 -0.0259554 0)
(0.49221 -0.0250876 0)
(0.493794 -0.0242556 0)
(0.495321 -0.0234581 0)
(0.496794 -0.0226938 0)
(0.498216 -0.0219617 0)
(0.499588 -0.0212604 0)
(0.500914 -0.0205887 0)
(0.502194 -0.0199454 0)
(0.503433 -0.0193294 0)
(0.504631 -0.0187395 0)
(0.505791 -0.0181747 0)
(0.506915 -0.0176339 0)
(0.508004 -0.017116 0)
(0.50906 -0.0166201 0)
(0.510085 -0.0161451 0)
(0.511081 -0.0156902 0)
(0.512049 -0.0152545 0)
(0.51299 -0.0148372 0)
(0.513907 -0.0144373 0)
(0.514799 -0.0140542 0)
(0.515669 -0.0136872 0)
(0.516518 -0.0133354 0)
(0.517347 -0.0129982 0)
(0.518157 -0.012675 0)
(0.518949 -0.0123652 0)
(0.519724 -0.0120681 0)
(0.520483 -0.0117833 0)
(0.521226 -0.0115102 0)
(0.521956 -0.0112483 0)
(0.522672 -0.0109971 0)
(0.523375 -0.0107562 0)
(0.524067 -0.0105252 0)
(0.524747 -0.0103037 0)
(0.525417 -0.0100913 0)
(0.526077 -0.00988763 0)
(0.526728 -0.0096924 0)
(0.52737 -0.00950529 0)
(0.528003 -0.00932601 0)
(0.52863 -0.00915429 0)
(0.529249 -0.00898988 0)
(0.529861 -0.00883255 0)
(0.530468 -0.00868208 0)
(0.531068 -0.00853829 0)
(0.531663 -0.00840097 0)
(0.532253 -0.00826999 0)
(0.532839 -0.00814516 0)
(0.533419 -0.00802635 0)
(0.533995 -0.00791337 0)
(0.534565 -0.00780602 0)
(0.535129 -0.00770395 0)
(0.535686 -0.00760659 0)
(0.536234 -0.00751289 0)
(0.53677 -0.00742084 0)
(0.537288 -0.00732617 0)
(0.5378 -0.00722158 0)
(0.538367 -0.00711567 0)
(0.0896777 0.0445173 0)
(0.116887 0.0245062 0)
(0.161303 0.0131268 0)
(0.200489 0.00654659 0)
(0.233567 0.00185238 0)
(0.262604 -0.00200824 0)
(0.288632 -0.0053826 0)
(0.312165 -0.00852435 0)
(0.333687 -0.0117497 0)
(0.352844 -0.0151792 0)
(0.369739 -0.0188283 0)
(0.384916 -0.0227521 0)
(0.398626 -0.0269652 0)
(0.410925 -0.031441 0)
(0.421906 -0.0361013 0)
(0.431653 -0.0408094 0)
(0.440294 -0.0454418 0)
(0.447964 -0.0498904 0)
(0.454791 -0.0540632 0)
(0.460889 -0.0578883 0)
(0.466363 -0.0613156 0)
(0.471302 -0.0643137 0)
(0.475785 -0.066866 0)
(0.479883 -0.0689697 0)
(0.483657 -0.0706351 0)
(0.487157 -0.0718819 0)
(0.490424 -0.0727355 0)
(0.493493 -0.0732246 0)
(0.49639 -0.0733791 0)
(0.499136 -0.0732293 0)
(0.501752 -0.0728058 0)
(0.504252 -0.0721401 0)
(0.50665 -0.0712629 0)
(0.508954 -0.0702031 0)
(0.511172 -0.0689874 0)
(0.513309 -0.0676401 0)
(0.515371 -0.0661843 0)
(0.517362 -0.0646408 0)
(0.519284 -0.0630283 0)
(0.521141 -0.0613631 0)
(0.522934 -0.0596599 0)
(0.524667 -0.0579324 0)
(0.526342 -0.0561937 0)
(0.527961 -0.0544552 0)
(0.529525 -0.0527269 0)
(0.531034 -0.0510173 0)
(0.532489 -0.0493334 0)
(0.53389 -0.0476809 0)
(0.535237 -0.0460642 0)
(0.536532 -0.0444869 0)
(0.537774 -0.0429518 0)
(0.538965 -0.0414607 0)
(0.540106 -0.0400152 0)
(0.541197 -0.038616 0)
(0.542242 -0.0372636 0)
(0.54324 -0.0359583 0)
(0.544193 -0.0346996 0)
(0.545104 -0.0334873 0)
(0.545973 -0.0323206 0)
(0.546802 -0.0311987 0)
(0.547593 -0.0301208 0)
(0.548348 -0.0290856 0)
(0.549068 -0.0280922 0)
(0.549755 -0.0271392 0)
(0.55041 -0.0262255 0)
(0.551036 -0.0253498 0)
(0.551634 -0.0245107 0)
(0.552205 -0.0237069 0)
(0.55275 -0.0229372 0)
(0.553272 -0.0222003 0)
(0.553772 -0.0214948 0)
(0.554251 -0.0208195 0)
(0.55471 -0.0201733 0)
(0.55515 -0.0195548 0)
(0.555574 -0.0189629 0)
(0.555982 -0.0183965 0)
(0.556374 -0.0178545 0)
(0.556753 -0.0173359 0)
(0.557119 -0.0168395 0)
(0.557474 -0.0163645 0)
(0.557817 -0.0159099 0)
(0.55815 -0.0154747 0)
(0.558474 -0.0150582 0)
(0.55879 -0.0146594 0)
(0.559098 -0.0142776 0)
(0.559399 -0.0139121 0)
(0.559694 -0.013562 0)
(0.559983 -0.0132268 0)
(0.560267 -0.0129058 0)
(0.560546 -0.0125982 0)
(0.560822 -0.0123037 0)
(0.561094 -0.0120215 0)
(0.561363 -0.0117512 0)
(0.561629 -0.0114923 0)
(0.561894 -0.0112442 0)