/*--------------------------------*- C++ -*----------------------------------*\
| =========                 |                                                 |
| \\      /  F ield         | OpenFOAM: The Open Source CFD Toolbox           |
|  \\    /   O peration     | Version:  4.0                                   |
|   \\  /    A nd           | Web:      www.OpenFOAM.org                      |
|    \\/     M anipulation  |                                                 |
\*---------------------------------------------------------------------------*/
FoamFile
{
    version     2.0;
    format      ascii;
    class       volScalarField;
    location    "85";
    object      yPlus;
}
// * * * * * * * * * * * * * * * * * * * * * * * * * * * * * * * * * * * * * //

dimensions      [0 0 0 0 0 0 0];

internalField   uniform 0;

boundaryField
{
    inlet
    {
        type            calculated;
        value           uniform 0;
    }
    outlet
    {
        type            calculated;
        value           uniform 0;
    }
    lowerWall
    {
        type            calculated;
        value           nonuniform List<scalar> 
144
(
20.4628
20.075
19.757
19.4942
19.2752
19.0914
18.9361
18.8037
18.6902
18.5922
18.507
18.4326
18.3672
18.3094
18.2578
18.2294
5.6125
5.99762
6.22163
6.30447
6.29873
6.28106
6.47898
9.52355
5.6125
6.914
8.01701
8.96836
9.83622
10.6554
11.4454
12.2194
12.9595
13.6628
14.3281
14.9543
15.54
16.0844
16.5878
17.0523
17.4834
17.8933
18.2448
18.5362
18.7727
18.9591
19.0994
19.1967
19.2548
19.2775
19.2689
19.2325
19.1716
19.0894
18.9873
18.8665
18.7297
18.5791
18.4176
18.2497
18.0759
17.9011
17.7346
17.5893
17.4928
17.4105
17.3315
17.253
17.1744
17.0956
17.0168
16.9381
16.8595
16.7813
16.7035
16.6263
16.5497
16.4739
16.3989
16.3248
16.2516
16.1795
16.1084
16.0385
15.9696
15.9019
15.8354
15.77
15.7059
15.6429
15.581
15.5203
15.4608
15.4025
15.3452
15.2891
15.2341
15.1802
15.1273
15.0754
15.0246
14.9748
14.926
14.8781
14.8311
14.7851
14.7399
14.6957
14.6522
14.6096
14.5678
14.5269
14.4866
14.4471
14.4084
14.3703
14.333
14.2963
14.2604
14.225
14.1903
14.1562
14.1227
14.0898
14.0575
14.0258
13.9946
13.964
13.9338
13.9043
13.8752
13.8467
13.8187
13.7912
13.7641
13.7376
13.7117
13.6862
13.6613
13.6371
13.6137
13.5914
13.5709
13.5544
)
;
    }
    upperWall
    {
        type            calculated;
        value           nonuniform List<scalar> 
136
(
19.1946
18.7605
18.4557
18.2484
18.1112
18.0221
17.9656
17.9303
17.9086
17.8951
17.8859
17.8787
17.8718
17.8639
17.8544
17.8429
17.8291
17.8128
17.794
17.7724
17.7482
17.7214
17.6923
17.6616
17.6291
17.5945
17.5576
17.5182
17.4762
17.4314
17.3836
17.3327
17.2785
17.221
17.1601
17.0957
17.0279
16.9566
16.8818
16.8037
16.7223
16.6377
16.5503
16.46
16.3672
16.2721
16.1749
16.076
15.9757
15.8741
15.7718
15.6689
15.5659
15.463
15.3606
15.2589
15.1582
15.0589
14.9613
14.8654
14.7717
14.6802
14.5913
14.5049
14.4214
14.3408
14.2632
14.1887
14.1173
14.0491
13.9841
13.9223
13.8636
13.8081
13.7558
13.7064
13.66
13.6165
13.5757
13.5377
13.5023
13.4693
13.4387
13.4103
13.3841
13.36
13.3377
13.3173
13.2985
13.2813
13.2657
13.2518
13.2395
13.2285
13.2187
13.2099
13.2021
13.195
13.1886
13.1829
13.1776
13.1728
13.1684
13.1643
13.1605
13.1568
13.1534
13.1501
13.1469
13.1438
13.1407
13.1377
13.1347
13.1317
13.1287
13.1257
13.1226
13.1195
13.1164
13.1132
13.1099
13.1065
13.1031
13.0996
13.096
13.0923
13.0885
13.0845
13.0805
13.0764
13.072
13.0676
13.063
13.0582
13.0532
13.0483
)
;
    }
    frontAndBack
    {
        type            empty;
    }
}


// ************************************************************************* //
