# Region type : patch inlet
#   Faces  : 16
#   Area   : 4.000000e+00
#        Time	areaIntegrate(phi)
           85	-8.665635e-01
