# Region type : patch inlet
#   Faces  : 16
#   Area   : 4.000000e+00
#        Time	average(U)
            0	(8.665637e-01 0.000000e+00 0.000000e+00)
