# Region type : patch outlet
#   Faces  : 24
#   Area   : 6.000000e+00
#        Time	areaIntegrate(phi)
           85	8.665615e-01
